20241016A1C1

3779 atoms
3822 bond

0 93.93364366277243 xlo xhi
0 93.93364366277243 ylo yhi

Masses

1 1
2 1
3 1

Atoms # ID molID type x y z

1 1 1 56.235382700884166 17.705107073886875 0 
2 1 1 92.12038531846406 15.135777362506044 0 
3 1 1 28.26016223245503 39.05159587342365 0 
4 1 1 85.84983649541813 88.23164190311381 0 
5 1 1 91.12937551197662 29.65631002614229 0 
6 1 1 73.89356652497345 51.267451375940865 0 
7 1 1 40.21135022098379 39.084286008666425 0 
8 1 1 23.18961411548924 32.25626689947592 0 
9 1 1 64.15130545910785 24.227183280106257 0 
10 1 1 34.18866854392553 18.307999886209256 0 
11 1 1 59.22297033557706 22.003017317137502 0 
12 1 1 4.430290956847755 66.26329678227626 0 
13 1 1 68.53807184053834 66.89903853112766 0 
14 1 1 36.60811684641072 76.50589196265592 0 
15 1 1 75.26084138225893 46.63629963256245 0 
16 1 1 87.81956426074217 36.717618992200165 0 
17 1 1 61.06234262963647 26.64192479078258 0 
18 1 1 10.885766171477751 49.22622321284871 0 
19 1 1 32.30959593083226 93.51140051771765 0 
20 1 1 15.380796440730244 49.807614910699 0 
21 1 1 84.04254105875847 28.953062211717995 0 
22 1 1 49.960837487974295 34.67867025311397 0 
23 1 1 39.70270368788017 49.93725027966817 0 
24 1 1 73.81658679959584 93.76205930588401 0 
25 1 1 46.95768312397687 85.18964209534491 0 
26 1 1 20.129730611469256 76.25518703104468 0 
27 1 1 86.26221857966367 72.15609879620249 0 
28 1 1 71.57929731636874 13.345019872798344 0 
29 1 1 47.18124325851506 77.25133893604324 0 
30 1 1 18.255085490120358 36.81895184451195 0 
31 1 1 75.00331064903345 61.711312054456286 0 
32 1 1 74.78571507567767 64.91118944377553 0 
33 1 1 69.85364136665527 54.7552460042682 0 
34 1 1 86.4176520328011 18.810487981034694 0 
35 1 1 58.71693690745934 59.57807764255616 0 
36 1 1 15.622414247645372 33.42202243747666 0 
37 1 1 83.18553339073303 58.0110358221276 0 
38 1 1 8.18180100343734 47.55633976294414 0 
39 1 1 31.391202619338863 71.85029755706455 0 
40 1 1 6.691201753648946 41.312525440530536 0 
41 1 1 29.184652161406166 38.24573527565601 0 
42 1 1 29.326821482763766 63.485835553097594 0 
43 1 1 57.52821216256315 66.83632545597949 0 
44 1 1 58.36759252388821 62.41800343288264 0 
45 1 1 5.8075846834240785 63.39461714658018 0 
46 1 1 55.64657549011503 76.77156865726967 0 
47 1 1 64.48645804948684 52.67648526068412 0 
48 1 1 72.37720333380278 55.54144706603076 0 
49 1 1 43.07101393470133 4.614601347420377 0 
50 1 1 14.496767429270312 78.0767573119778 0 
51 1 1 61.93084201929044 9.18520517251075 0 
52 1 1 28.367565139060357 61.49227337790411 0 
53 1 1 48.337060267705475 66.22624493244278 0 
54 1 1 12.76664630431409 37.65586577116606 0 
55 1 1 6.211932822329295 14.47443479201441 0 
56 1 1 9.231424975767878 83.08199093013016 0 
57 1 1 18.253087603770126 39.96301778861784 0 
58 1 1 72.66373958126887 23.50943496466433 0 
59 1 1 74.20177503435423 26.42264590191727 0 
60 1 1 28.346893366942293 42.04876947619144 0 
61 1 1 59.93768856938865 11.943082618364494 0 
62 1 1 62.853966559673246 63.84695861814517 0 
63 1 1 41.548616145746884 55.17920118323335 0 
64 1 1 76.72870663894128 58.62733680321648 0 
65 1 1 62.84233981423694 42.81426781099444 0 
66 1 1 62.06164722266845 20.837080069886596 0 
67 1 1 76.43677387565256 63.59401943665804 0 
68 1 1 28.751245926099443 53.29058202537506 0 
69 1 1 20.472050772786645 20.017290688689553 0 
70 1 1 41.90923610046811 81.4363982680443 0 
71 1 1 57.888561183129305 63.24080948416928 0 
72 1 1 13.414333925234919 33.65774541015063 0 
73 1 1 13.37450194204328 69.59190159348026 0 
74 1 1 20.549563572687482 51.94240463163826 0 
75 1 1 10.94455999461788 7.575382356702896 0 
76 1 1 79.83410468713045 13.265183041073685 0 
77 1 1 74.24076958818071 14.117839894113873 0 
78 1 1 53.52038718601133 24.609545261504046 0 
79 1 1 65.02752385151997 11.479474931025129 0 
80 1 1 22.581894202731792 36.69011807603462 0 
81 1 1 72.25549618476009 14.553563765907297 0 
82 1 1 49.59979893291471 17.537794188607823 0 
83 1 1 64.39622476583558 71.52258627802662 0 
84 1 1 90.78766038685318 31.46176939616404 0 
85 1 1 93.39422875411114 90.68726501104923 0 
86 1 1 89.87515889317423 77.02008235658043 0 
87 1 1 12.489955572943353 37.93448847571458 0 
88 1 1 84.22277177440876 34.92806615939421 0 
89 1 1 58.53060111195177 31.279233087371367 0 
90 1 1 7.067383744306072 73.53623190438311 0 
91 1 1 3.838643005678497 31.900578393769024 0 
92 1 1 83.22420907899478 39.49998014484471 0 
93 1 1 21.701324400486197 70.43370095128066 0 
94 1 1 91.07881571349834 19.851032256298254 0 
95 1 1 77.669566046374 3.559750762480055 0 
96 1 1 53.16197791968999 49.30014414129679 0 
97 1 1 93.52218255876618 12.552097139434 0 
98 1 1 85.41804006588039 20.777465400237457 0 
99 1 3 75.21316407968584 38.32275293593383 0 
100 1 3 86.31370995754064 33.649636882970555 0 
101 1 3 37.15860397209837 36.34002905599801 0 
102 1 3 17.485125007875766 41.15701409798512 0 
103 1 3 41.413303572593364 20.21633150961717 0 
104 1 3 20.329347424075536 77.71588746125964 0 
105 2 2 55.235382700884166 18.705107073886875 0 
106 2 2 56.235382700884166 19.705107073886875 0 
107 2 2 55.235382700884166 20.705107073886875 0 
108 2 2 56.235382700884166 21.705107073886875 0 
109 2 2 57.235382700884166 20.705107073886875 0 
110 2 2 58.235382700884166 19.705107073886875 0 
111 2 2 58.235382700884166 20.705107073886875 0 
112 2 2 59.235382700884166 19.705107073886875 0 
113 2 2 58.235382700884166 18.705107073886875 0 
114 2 2 59.235382700884166 18.705107073886875 0 
115 2 2 60.235382700884166 19.705107073886875 0 
116 2 2 59.235382700884166 20.705107073886875 0 
117 2 2 60.235382700884166 20.705107073886875 0 
118 2 2 60.22297033557706 20.003017317137502 0 
119 2 2 59.22297033557706 21.003017317137502 0 
120 2 2 58.22297033557706 22.003017317137502 0 
121 2 2 57.22297033557706 21.003017317137502 0 
122 2 2 56.22297033557706 20.003017317137502 0 
123 2 2 55.22297033557706 20.003017317137502 0 
124 2 2 56.22297033557706 19.003017317137502 0 
125 2 2 57.22297033557706 20.003017317137502 0 
126 2 2 58.22297033557706 19.003017317137502 0 
127 2 2 59.22297033557706 20.003017317137502 0 
128 2 2 58.22297033557706 21.003017317137502 0 
129 2 2 59.22297033557706 22.003017317137502 0 
130 3 2 55.235382700884166 18.705107073886875 0 
131 3 2 54.235382700884166 19.705107073886875 0 
132 3 2 55.235382700884166 20.705107073886875 0 
133 3 2 54.235382700884166 21.705107073886875 0 
134 3 2 55.235382700884166 21.705107073886875 0 
135 3 2 56.235382700884166 22.705107073886875 0 
136 3 2 57.235382700884166 23.705107073886875 0 
137 3 2 58.235382700884166 22.705107073886875 0 
138 3 2 59.235382700884166 21.705107073886875 0 
139 3 2 60.235382700884166 22.705107073886875 0 
140 3 2 59.235382700884166 23.705107073886875 0 
141 3 2 58.235382700884166 24.705107073886875 0 
142 3 2 57.235382700884166 25.705107073886875 0 
143 3 2 57.151305459107846 26.227183280106257 0 
144 3 2 58.151305459107846 25.227183280106257 0 
145 3 2 57.151305459107846 24.227183280106257 0 
146 3 2 58.151305459107846 23.227183280106257 0 
147 3 2 57.151305459107846 22.227183280106257 0 
148 3 2 58.151305459107846 21.227183280106257 0 
149 3 2 59.151305459107846 22.227183280106257 0 
150 3 2 60.151305459107846 21.227183280106257 0 
151 3 2 61.151305459107846 21.227183280106257 0 
152 3 2 60.151305459107846 22.227183280106257 0 
153 3 2 61.151305459107846 23.227183280106257 0 
154 3 2 62.151305459107846 24.227183280106257 0 
155 4 2 55.235382700884166 18.705107073886875 0 
156 4 2 56.235382700884166 19.705107073886875 0 
157 4 2 55.235382700884166 20.705107073886875 0 
158 4 2 54.235382700884166 19.705107073886875 0 
159 4 2 53.235382700884166 20.705107073886875 0 
160 4 2 52.235382700884166 21.705107073886875 0 
161 4 2 53.235382700884166 21.705107073886875 0 
162 4 2 52.235382700884166 22.705107073886875 0 
163 4 2 51.235382700884166 21.705107073886875 0 
164 4 2 52.235382700884166 20.705107073886875 0 
165 4 2 51.235382700884166 20.705107073886875 0 
166 4 2 50.235382700884166 21.705107073886875 0 
167 4 2 49.235382700884166 22.705107073886875 0 
168 4 2 48.59979893291471 23.537794188607823 0 
169 4 2 47.59979893291471 22.537794188607823 0 
170 4 2 46.59979893291471 21.537794188607823 0 
171 4 2 47.59979893291471 20.537794188607823 0 
172 4 2 48.59979893291471 21.537794188607823 0 
173 4 2 49.59979893291471 22.537794188607823 0 
174 4 2 50.59979893291471 21.537794188607823 0 
175 4 2 49.59979893291471 20.537794188607823 0 
176 4 2 50.59979893291471 20.537794188607823 0 
177 4 2 49.59979893291471 21.537794188607823 0 
178 4 2 48.59979893291471 20.537794188607823 0 
179 4 2 49.59979893291471 19.537794188607823 0 
180 5 2 91.12038531846406 16.135777362506044 0 
181 5 2 90.12038531846406 17.135777362506044 0 
182 5 2 89.12038531846406 16.135777362506044 0 
183 5 2 88.12038531846406 17.135777362506044 0 
184 5 2 87.12038531846406 16.135777362506044 0 
185 5 2 88.12038531846406 16.135777362506044 0 
186 5 2 87.12038531846406 17.135777362506044 0 
187 5 2 86.12038531846406 18.135777362506044 0 
188 5 2 85.12038531846406 19.135777362506044 0 
189 5 2 86.12038531846406 20.135777362506044 0 
190 5 2 85.12038531846406 21.135777362506044 0 
191 5 2 84.12038531846406 20.135777362506044 0 
192 5 2 83.12038531846406 21.135777362506044 0 
193 5 2 83.41804006588039 21.777465400237457 0 
194 5 2 82.41804006588039 20.777465400237457 0 
195 5 2 82.41804006588039 21.777465400237457 0 
196 5 2 83.41804006588039 22.777465400237457 0 
197 5 2 84.41804006588039 21.777465400237457 0 
198 5 2 85.41804006588039 21.777465400237457 0 
199 5 2 84.41804006588039 20.777465400237457 0 
200 5 2 83.41804006588039 19.777465400237457 0 
201 5 2 82.41804006588039 19.777465400237457 0 
202 5 2 83.41804006588039 20.777465400237457 0 
203 5 2 84.41804006588039 19.777465400237457 0 
204 5 2 85.41804006588039 20.777465400237457 0 
205 6 2 91.12038531846406 16.135777362506044 0 
206 6 2 90.12038531846406 15.135777362506044 0 
207 6 2 89.12038531846406 16.135777362506044 0 
208 6 2 88.12038531846406 15.135777362506044 0 
209 6 2 87.12038531846406 16.135777362506044 0 
210 6 2 88.12038531846406 17.135777362506044 0 
211 6 2 87.12038531846406 18.135777362506044 0 
212 6 2 86.12038531846406 19.135777362506044 0 
213 6 2 87.12038531846406 20.135777362506044 0 
214 6 2 86.12038531846406 21.135777362506044 0 
215 6 2 85.12038531846406 22.135777362506044 0 
216 6 2 84.12038531846406 21.135777362506044 0 
217 6 2 85.12038531846406 20.135777362506044 0 
218 6 2 85.4176520328011 17.810487981034694 0 
219 6 2 86.4176520328011 16.810487981034694 0 
220 6 2 87.4176520328011 17.810487981034694 0 
221 6 2 86.4176520328011 17.810487981034694 0 
222 6 2 87.4176520328011 18.810487981034694 0 
223 6 2 86.4176520328011 19.810487981034694 0 
224 6 2 87.4176520328011 20.810487981034694 0 
225 6 2 88.4176520328011 20.810487981034694 0 
226 6 2 87.4176520328011 21.810487981034694 0 
227 6 2 86.4176520328011 20.810487981034694 0 
228 6 2 85.4176520328011 19.810487981034694 0 
229 6 2 86.4176520328011 18.810487981034694 0 
230 7 2 29.26016223245503 40.05159587342365 0 
231 7 2 28.26016223245503 41.05159587342365 0 
232 7 2 27.26016223245503 40.05159587342365 0 
233 7 2 27.26016223245503 39.05159587342365 0 
234 7 2 28.26016223245503 40.05159587342365 0 
235 7 2 27.26016223245503 41.05159587342365 0 
236 7 2 26.26016223245503 40.05159587342365 0 
237 7 2 26.26016223245503 41.05159587342365 0 
238 7 2 25.26016223245503 42.05159587342365 0 
239 7 2 24.26016223245503 41.05159587342365 0 
240 7 2 25.26016223245503 40.05159587342365 0 
241 7 2 26.26016223245503 39.05159587342365 0 
242 7 2 25.26016223245503 38.05159587342365 0 
243 7 2 25.346893366942293 39.04876947619144 0 
244 7 2 26.346893366942293 38.04876947619144 0 
245 7 2 27.346893366942293 38.04876947619144 0 
246 7 2 28.346893366942293 38.04876947619144 0 
247 7 2 29.346893366942293 39.04876947619144 0 
248 7 2 30.346893366942293 40.04876947619144 0 
249 7 2 29.346893366942293 41.04876947619144 0 
250 7 2 30.346893366942293 41.04876947619144 0 
251 7 2 29.346893366942293 42.04876947619144 0 
252 7 2 30.346893366942293 43.04876947619144 0 
253 7 2 31.346893366942293 43.04876947619144 0 
254 7 2 30.346893366942293 44.04876947619144 0 
255 8 2 27.26016223245503 40.05159587342365 0 
256 8 2 26.26016223245503 41.05159587342365 0 
257 8 2 25.26016223245503 42.05159587342365 0 
258 8 2 24.26016223245503 43.05159587342365 0 
259 8 2 23.26016223245503 42.05159587342365 0 
260 8 2 24.26016223245503 41.05159587342365 0 
261 8 2 23.26016223245503 40.05159587342365 0 
262 8 2 24.26016223245503 39.05159587342365 0 
263 8 2 23.26016223245503 38.05159587342365 0 
264 8 2 22.26016223245503 39.05159587342365 0 
265 8 2 21.26016223245503 40.05159587342365 0 
266 8 2 20.26016223245503 41.05159587342365 0 
267 8 2 19.26016223245503 42.05159587342365 0 
268 8 2 19.549563572687482 44.94240463163826 0 
269 8 2 18.549563572687482 45.94240463163826 0 
270 8 2 18.549563572687482 46.94240463163826 0 
271 8 2 19.549563572687482 47.94240463163826 0 
272 8 2 20.549563572687482 46.94240463163826 0 
273 8 2 19.549563572687482 45.94240463163826 0 
274 8 2 19.549563572687482 46.94240463163826 0 
275 8 2 20.549563572687482 45.94240463163826 0 
276 8 2 21.549563572687482 46.94240463163826 0 
277 8 2 20.549563572687482 47.94240463163826 0 
278 8 2 21.549563572687482 48.94240463163826 0 
279 8 2 20.549563572687482 49.94240463163826 0 
280 9 2 29.26016223245503 40.05159587342365 0 
281 9 2 30.26016223245503 39.05159587342365 0 
282 9 2 31.26016223245503 38.05159587342365 0 
283 9 2 32.26016223245503 39.05159587342365 0 
284 9 2 31.26016223245503 40.05159587342365 0 
285 9 2 30.26016223245503 41.05159587342365 0 
286 9 2 31.26016223245503 41.05159587342365 0 
287 9 2 30.26016223245503 42.05159587342365 0 
288 9 2 31.26016223245503 43.05159587342365 0 
289 9 2 32.26016223245503 42.05159587342365 0 
290 9 2 33.26016223245503 41.05159587342365 0 
291 9 2 32.26016223245503 40.05159587342365 0 
292 9 2 31.26016223245503 39.05159587342365 0 
293 9 2 30.18961411548924 38.25626689947592 0 
294 9 2 31.18961411548924 37.25626689947592 0 
295 9 2 30.18961411548924 36.25626689947592 0 
296 9 2 29.18961411548924 35.25626689947592 0 
297 9 2 28.18961411548924 34.25626689947592 0 
298 9 2 27.18961411548924 33.25626689947592 0 
299 9 2 26.18961411548924 32.25626689947592 0 
300 9 2 25.18961411548924 31.256266899475918 0 
301 9 2 24.18961411548924 32.25626689947592 0 
302 9 2 23.18961411548924 32.25626689947592 0 
303 9 2 24.18961411548924 33.25626689947592 0 
304 9 2 23.18961411548924 34.25626689947592 0 
305 10 2 84.84983649541813 89.23164190311381 0 
306 10 2 85.84983649541813 89.23164190311381 0 
307 10 2 86.84983649541813 90.23164190311381 0 
308 10 2 86.84983649541813 89.23164190311381 0 
309 10 2 87.84983649541813 88.23164190311381 0 
310 10 2 88.84983649541813 89.23164190311381 0 
311 10 2 87.84983649541813 90.23164190311381 0 
312 10 2 88.84983649541813 91.23164190311381 0 
313 10 2 89.84983649541813 90.23164190311381 0 
314 10 2 90.84983649541813 89.23164190311381 0 
315 10 2 89.84983649541813 88.23164190311381 0 
316 10 2 88.84983649541813 87.23164190311381 0 
317 10 2 89.84983649541813 86.23164190311381 0 
318 10 2 89.39422875411114 87.68726501104923 0 
319 10 2 90.39422875411114 88.68726501104923 0 
320 10 2 91.39422875411114 87.68726501104923 0 
321 10 2 90.39422875411114 86.68726501104923 0 
322 10 2 91.39422875411114 85.68726501104923 0 
323 10 2 91.39422875411114 84.68726501104923 0 
324 10 2 92.39422875411114 83.68726501104923 0 
325 10 2 93.39422875411114 84.68726501104923 0 
326 10 2 92.39422875411114 85.68726501104923 0 
327 10 2 93.39422875411114 86.68726501104923 0 
328 10 2 0.4605850913387144 87.68726501104923 0 
329 10 2 93.39422875411114 88.68726501104923 0 
330 11 2 84.84983649541813 89.23164190311381 0 
331 11 2 83.84983649541813 90.23164190311381 0 
332 11 2 83.84983649541813 89.23164190311381 0 
333 11 2 82.84983649541813 88.23164190311381 0 
334 11 2 81.84983649541813 87.23164190311381 0 
335 11 2 82.84983649541813 86.23164190311381 0 
336 11 2 81.84983649541813 85.23164190311381 0 
337 11 2 80.84983649541813 86.23164190311381 0 
338 11 2 79.84983649541813 87.23164190311381 0 
339 11 2 78.84983649541813 88.23164190311381 0 
340 11 2 79.84983649541813 89.23164190311381 0 
341 11 2 78.84983649541813 90.23164190311381 0 
342 11 2 79.84983649541813 91.23164190311381 0 
343 11 2 80.81658679959584 91.76205930588401 0 
344 11 2 81.81658679959584 92.76205930588401 0 
345 11 2 80.81658679959584 93.76205930588401 0 
346 11 2 79.81658679959584 92.76205930588401 0 
347 11 2 78.81658679959584 91.76205930588401 0 
348 11 2 77.81658679959584 92.76205930588401 0 
349 11 2 76.81658679959584 93.76205930588401 0 
350 11 2 77.81658679959584 0.8284156431115832 0 
351 11 2 78.81658679959584 0.8284156431115832 0 
352 11 2 77.81658679959584 93.76205930588401 0 
353 11 2 76.81658679959584 0.8284156431115832 0 
354 11 2 75.81658679959584 1.8284156431115832 0 
355 12 2 90.12937551197662 28.65631002614229 0 
356 12 2 89.12937551197662 29.65631002614229 0 
357 12 2 90.12937551197662 30.65631002614229 0 
358 12 2 90.12937551197662 29.65631002614229 0 
359 12 2 91.12937551197662 28.65631002614229 0 
360 12 2 90.12937551197662 27.65631002614229 0 
361 12 2 91.12937551197662 26.65631002614229 0 
362 12 2 92.12937551197662 27.65631002614229 0 
363 12 2 93.12937551197662 28.65631002614229 0 
364 12 2 92.12937551197662 29.65631002614229 0 
365 12 2 91.12937551197662 30.65631002614229 0 
366 12 2 92.12937551197662 30.65631002614229 0 
367 12 2 93.12937551197662 31.65631002614229 0 
368 12 2 93.04254105875847 30.95306221171799 0 
369 12 2 92.04254105875847 29.95306221171799 0 
370 12 2 91.04254105875847 30.95306221171799 0 
371 12 2 90.04254105875847 31.95306221171799 0 
372 12 2 89.04254105875847 32.95306221171799 0 
373 12 2 88.04254105875847 31.953062211717995 0 
374 12 2 89.04254105875847 31.953062211717995 0 
375 12 2 88.04254105875847 30.953062211717995 0 
376 12 2 89.04254105875847 29.953062211717995 0 
377 12 2 88.04254105875847 28.953062211717995 0 
378 12 2 87.04254105875847 27.953062211717995 0 
379 12 2 86.04254105875847 28.953062211717995 0 
380 13 2 92.12937551197662 28.65631002614229 0 
381 13 2 93.12937551197662 27.65631002614229 0 
382 13 2 92.12937551197662 26.65631002614229 0 
383 13 2 91.12937551197662 27.65631002614229 0 
384 13 2 90.12937551197662 28.65631002614229 0 
385 13 2 90.12937551197662 29.65631002614229 0 
386 13 2 89.12937551197662 30.65631002614229 0 
387 13 2 88.12937551197662 29.65631002614229 0 
388 13 2 87.12937551197662 30.65631002614229 0 
389 13 2 88.12937551197662 31.65631002614229 0 
390 13 2 89.12937551197662 32.65631002614229 0 
391 13 2 90.12937551197662 31.656310026142293 0 
392 13 2 90.12937551197662 30.656310026142293 0 
393 13 2 88.31370995754064 30.649636882970555 0 
394 13 2 89.31370995754064 29.649636882970555 0 
395 13 2 90.31370995754064 30.649636882970555 0 
396 13 2 89.31370995754064 31.649636882970555 0 
397 13 2 89.31370995754064 32.649636882970555 0 
398 13 2 88.31370995754064 31.649636882970555 0 
399 13 2 87.31370995754064 30.649636882970555 0 
400 13 2 86.31370995754064 30.649636882970555 0 
401 13 2 87.31370995754064 31.649636882970555 0 
402 13 2 88.31370995754064 32.649636882970555 0 
403 13 2 87.31370995754064 32.649636882970555 0 
404 13 2 88.31370995754064 33.649636882970555 0 
405 14 2 72.89356652497345 50.267451375940865 0 
406 14 2 73.89356652497345 49.267451375940865 0 
407 14 2 74.89356652497345 50.267451375940865 0 
408 14 2 75.89356652497345 51.267451375940865 0 
409 14 2 76.89356652497345 52.267451375940865 0 
410 14 2 75.89356652497345 53.267451375940865 0 
411 14 2 76.89356652497345 54.267451375940865 0 
412 14 2 75.89356652497345 55.267451375940865 0 
413 14 2 76.89356652497345 56.267451375940865 0 
414 14 2 75.89356652497345 57.267451375940865 0 
415 14 2 76.89356652497345 58.267451375940865 0 
416 14 2 77.89356652497345 57.267451375940865 0 
417 14 2 78.89356652497345 56.267451375940865 0 
418 14 2 77.18553339073303 54.0110358221276 0 
419 14 2 76.18553339073303 54.0110358221276 0 
420 14 2 75.18553339073303 55.0110358221276 0 
421 14 2 76.18553339073303 56.0110358221276 0 
422 14 2 77.18553339073303 55.0110358221276 0 
423 14 2 78.18553339073303 54.0110358221276 0 
424 14 2 79.18553339073303 55.0110358221276 0 
425 14 2 80.18553339073303 54.0110358221276 0 
426 14 2 81.18553339073303 55.0110358221276 0 
427 14 2 82.18553339073303 56.0110358221276 0 
428 14 2 82.18553339073303 57.0110358221276 0 
429 14 2 83.18553339073303 56.0110358221276 0 
430 15 2 72.89356652497345 50.267451375940865 0 
431 15 2 71.89356652497345 51.267451375940865 0 
432 15 2 70.89356652497345 52.267451375940865 0 
433 15 2 69.89356652497345 53.267451375940865 0 
434 15 2 70.89356652497345 54.267451375940865 0 
435 15 2 71.89356652497345 53.267451375940865 0 
436 15 2 72.89356652497345 52.267451375940865 0 
437 15 2 72.89356652497345 51.267451375940865 0 
438 15 2 71.89356652497345 52.267451375940865 0 
439 15 2 70.89356652497345 53.267451375940865 0 
440 15 2 69.89356652497345 54.267451375940865 0 
441 15 2 68.89356652497345 55.267451375940865 0 
442 15 2 69.89356652497345 56.267451375940865 0 
443 15 2 70.48645804948684 56.67648526068412 0 
444 15 2 69.48645804948684 55.67648526068412 0 
445 15 2 69.48645804948684 54.67648526068412 0 
446 15 2 68.48645804948684 55.67648526068412 0 
447 15 2 67.48645804948684 56.67648526068412 0 
448 15 2 66.48645804948684 55.67648526068412 0 
449 15 2 67.48645804948684 54.67648526068412 0 
450 15 2 68.48645804948684 53.67648526068412 0 
451 15 2 69.48645804948684 53.67648526068412 0 
452 15 2 68.48645804948684 54.67648526068412 0 
453 15 2 67.48645804948684 53.67648526068412 0 
454 15 2 66.48645804948684 52.67648526068412 0 
455 16 2 72.89356652497345 52.267451375940865 0 
456 16 2 71.89356652497345 51.267451375940865 0 
457 16 2 70.89356652497345 52.267451375940865 0 
458 16 2 69.89356652497345 53.267451375940865 0 
459 16 2 70.89356652497345 54.267451375940865 0 
460 16 2 69.89356652497345 55.267451375940865 0 
461 16 2 69.89356652497345 54.267451375940865 0 
462 16 2 70.89356652497345 53.267451375940865 0 
463 16 2 71.89356652497345 54.267451375940865 0 
464 16 2 72.89356652497345 55.267451375940865 0 
465 16 2 71.89356652497345 56.267451375940865 0 
466 16 2 72.89356652497345 57.267451375940865 0 
467 16 2 73.89356652497345 56.267451375940865 0 
468 16 2 73.37720333380278 56.54144706603076 0 
469 16 2 73.37720333380278 55.54144706603076 0 
470 16 2 74.37720333380278 56.54144706603076 0 
471 16 2 75.37720333380278 57.54144706603076 0 
472 16 2 74.37720333380278 58.54144706603076 0 
473 16 2 73.37720333380278 57.54144706603076 0 
474 16 2 72.37720333380278 56.54144706603076 0 
475 16 2 71.37720333380278 55.54144706603076 0 
476 16 2 72.37720333380278 54.54144706603076 0 
477 16 2 72.37720333380278 53.54144706603076 0 
478 16 2 71.37720333380278 54.54144706603076 0 
479 16 2 72.37720333380278 55.54144706603076 0 
480 17 2 39.21135022098379 38.084286008666425 0 
481 17 2 38.21135022098379 39.084286008666425 0 
482 17 2 39.21135022098379 40.084286008666425 0 
483 17 2 40.21135022098379 41.084286008666425 0 
484 17 2 39.21135022098379 42.084286008666425 0 
485 17 2 40.21135022098379 43.084286008666425 0 
486 17 2 41.21135022098379 44.084286008666425 0 
487 17 2 40.21135022098379 45.084286008666425 0 
488 17 2 41.21135022098379 46.084286008666425 0 
489 17 2 40.21135022098379 47.084286008666425 0 
490 17 2 39.21135022098379 46.084286008666425 0 
491 17 2 38.21135022098379 45.084286008666425 0 
492 17 2 39.21135022098379 44.084286008666425 0 
493 17 2 39.70270368788017 42.93725027966817 0 
494 17 2 38.70270368788017 41.93725027966817 0 
495 17 2 37.70270368788017 42.93725027966817 0 
496 17 2 38.70270368788017 43.93725027966817 0 
497 17 2 37.70270368788017 44.93725027966817 0 
498 17 2 38.70270368788017 45.93725027966817 0 
499 17 2 37.70270368788017 46.93725027966817 0 
500 17 2 38.70270368788017 47.93725027966817 0 
501 17 2 38.70270368788017 46.93725027966817 0 
502 17 2 37.70270368788017 47.93725027966817 0 
503 17 2 38.70270368788017 48.93725027966817 0 
504 17 2 37.70270368788017 49.93725027966817 0 
505 18 2 39.21135022098379 38.084286008666425 0 
506 18 2 40.21135022098379 37.084286008666425 0 
507 18 2 41.21135022098379 38.084286008666425 0 
508 18 2 42.21135022098379 39.084286008666425 0 
509 18 2 41.21135022098379 40.084286008666425 0 
510 18 2 40.21135022098379 41.084286008666425 0 
511 18 2 41.21135022098379 42.084286008666425 0 
512 18 2 42.21135022098379 41.084286008666425 0 
513 18 2 43.21135022098379 40.084286008666425 0 
514 18 2 44.21135022098379 39.084286008666425 0 
515 18 2 45.21135022098379 38.084286008666425 0 
516 18 2 46.21135022098379 39.084286008666425 0 
517 18 2 47.21135022098379 40.084286008666425 0 
518 18 2 47.960837487974295 39.67867025311397 0 
519 18 2 48.960837487974295 38.67867025311397 0 
520 18 2 49.960837487974295 37.67867025311397 0 
521 18 2 50.960837487974295 36.67867025311397 0 
522 18 2 51.960837487974295 37.67867025311397 0 
523 18 2 51.960837487974295 36.67867025311397 0 
524 18 2 52.960837487974295 37.67867025311397 0 
525 18 2 51.960837487974295 38.67867025311397 0 
526 18 2 50.960837487974295 37.67867025311397 0 
527 18 2 49.960837487974295 36.67867025311397 0 
528 18 2 50.960837487974295 35.67867025311397 0 
529 18 2 51.960837487974295 34.67867025311397 0 
530 19 2 41.21135022098379 38.084286008666425 0 
531 19 2 40.21135022098379 37.084286008666425 0 
532 19 2 39.21135022098379 36.084286008666425 0 
533 19 2 38.21135022098379 35.084286008666425 0 
534 19 2 39.21135022098379 34.084286008666425 0 
535 19 2 40.21135022098379 33.084286008666425 0 
536 19 2 40.21135022098379 34.084286008666425 0 
537 19 2 41.21135022098379 35.084286008666425 0 
538 19 2 41.21135022098379 34.084286008666425 0 
539 19 2 42.21135022098379 35.084286008666425 0 
540 19 2 43.21135022098379 36.084286008666425 0 
541 19 2 44.21135022098379 37.084286008666425 0 
542 19 2 45.21135022098379 36.084286008666425 0 
543 19 2 44.15860397209837 35.34002905599801 0 
544 19 2 45.15860397209837 34.34002905599801 0 
545 19 2 46.15860397209837 34.34002905599801 0 
546 19 2 45.15860397209837 35.34002905599801 0 
547 19 2 44.15860397209837 34.34002905599801 0 
548 19 2 43.15860397209837 35.34002905599801 0 
549 19 2 42.15860397209837 34.34002905599801 0 
550 19 2 41.15860397209837 33.34002905599801 0 
551 19 2 40.15860397209837 32.34002905599801 0 
552 19 2 39.15860397209837 33.34002905599801 0 
553 19 2 40.15860397209837 33.34002905599801 0 
554 19 2 39.15860397209837 34.34002905599801 0 
555 20 2 22.18961411548924 33.25626689947592 0 
556 20 2 22.18961411548924 32.25626689947592 0 
557 20 2 23.18961411548924 33.25626689947592 0 
558 20 2 24.18961411548924 32.25626689947592 0 
559 20 2 24.18961411548924 33.25626689947592 0 
560 20 2 23.18961411548924 34.25626689947592 0 
561 20 2 22.18961411548924 34.25626689947592 0 
562 20 2 21.18961411548924 33.25626689947592 0 
563 20 2 21.18961411548924 34.25626689947592 0 
564 20 2 20.18961411548924 33.25626689947592 0 
565 20 2 21.18961411548924 32.25626689947592 0 
566 20 2 22.18961411548924 31.256266899475918 0 
567 20 2 21.18961411548924 31.256266899475918 0 
568 20 2 21.581894202731792 32.69011807603462 0 
569 20 2 22.581894202731792 33.69011807603462 0 
570 20 2 23.581894202731792 32.69011807603462 0 
571 20 2 24.581894202731792 31.690118076034622 0 
572 20 2 23.581894202731792 30.690118076034622 0 
573 20 2 22.581894202731792 31.690118076034622 0 
574 20 2 23.581894202731792 31.690118076034622 0 
575 20 2 24.581894202731792 32.69011807603462 0 
576 20 2 23.581894202731792 33.69011807603462 0 
577 20 2 22.581894202731792 32.69011807603462 0 
578 20 2 21.581894202731792 33.69011807603462 0 
579 20 2 22.581894202731792 34.69011807603462 0 
580 21 2 22.18961411548924 33.25626689947592 0 
581 21 2 21.18961411548924 34.25626689947592 0 
582 21 2 20.18961411548924 33.25626689947592 0 
583 21 2 19.18961411548924 32.25626689947592 0 
584 21 2 18.18961411548924 33.25626689947592 0 
585 21 2 17.18961411548924 32.25626689947592 0 
586 21 2 18.18961411548924 31.256266899475918 0 
587 21 2 17.18961411548924 30.256266899475918 0 
588 21 2 18.18961411548924 29.256266899475918 0 
589 21 2 17.18961411548924 28.256266899475918 0 
590 21 2 17.18961411548924 29.256266899475918 0 
591 21 2 16.18961411548924 28.256266899475918 0 
592 21 2 15.189614115489238 27.256266899475918 0 
593 21 2 14.472050772786645 26.017290688689553 0 
594 21 2 14.472050772786645 27.017290688689553 0 
595 21 2 13.472050772786645 26.017290688689553 0 
596 21 2 14.472050772786645 25.017290688689553 0 
597 21 2 15.472050772786645 26.017290688689553 0 
598 21 2 16.472050772786645 25.017290688689553 0 
599 21 2 15.472050772786645 25.017290688689553 0 
600 21 2 16.472050772786645 26.017290688689553 0 
601 21 2 17.472050772786645 25.017290688689553 0 
602 21 2 18.472050772786645 24.017290688689553 0 
603 21 2 17.472050772786645 23.017290688689553 0 
604 21 2 18.472050772786645 22.017290688689553 0 
605 22 2 63.151305459107846 25.227183280106257 0 
606 22 2 62.151305459107846 26.227183280106257 0 
607 22 2 61.151305459107846 25.227183280106257 0 
608 22 2 60.151305459107846 26.227183280106257 0 
609 22 2 59.151305459107846 25.227183280106257 0 
610 22 2 58.151305459107846 24.227183280106257 0 
611 22 2 57.151305459107846 23.227183280106257 0 
612 22 2 58.151305459107846 22.227183280106257 0 
613 22 2 57.151305459107846 21.227183280106257 0 
614 22 2 56.151305459107846 20.227183280106257 0 
615 22 2 55.151305459107846 21.227183280106257 0 
616 22 2 56.151305459107846 22.227183280106257 0 
617 22 2 57.151305459107846 22.227183280106257 0 
618 22 2 58.06234262963647 22.64192479078258 0 
619 22 2 57.06234262963647 23.64192479078258 0 
620 22 2 56.06234262963647 24.64192479078258 0 
621 22 2 57.06234262963647 24.64192479078258 0 
622 22 2 56.06234262963647 23.64192479078258 0 