20241016B1C1

1443 atoms
1490 bonds
                   
3 atom types
1 bond types

0 12.084372700534999 xlo xhi
0 12.084372700534999 ylo yhi

Masses

1 1
2 1
3 1

Atoms # full

1 1 1 7.900324979878825 10.571933066744563 0 
2 1 1 2.4914756070594994 7.368174430990455 0 
3 1 1 4.568462466138446 9.79637943496262 0 
4 1 1 3.4317099256399133 5.141645523003177 0 
5 1 1 7.628163825931085 2.1662183442580694 0 
6 1 1 10.747694982557325 2.472254375139876 0 
7 1 1 0.5718743186289933 6.238615866282427 0 
8 1 1 9.967593489933257 9.168830504088078 0 
9 1 1 5.814388903732802 0.6476077031757732 0 
10 1 1 11.700068349819121 10.476077727450967 0 
11 1 1 0.9332750404509873 7.89186725979035 0 
12 1 1 11.1696128402798 2.7664885538955715 0 
13 1 1 11.541555098837163 9.717165553459248 0 
14 1 1 1.887461225735193 1.6919794709548337 0 
15 1 1 11.07864181748377 2.975321295462383 0 
16 1 1 3.6865889148182998 5.57605562979552 0 
17 1 1 0.05120357847622621 11.641939242059742 0 
18 1 1 0.47960292595379744 2.6124593972448653 0 
19 1 1 2.3615170030706536 7.376802948491003 0 
20 1 1 0.198896243740621 0.1331321604300579 0 
21 1 1 0.21852275233966356 9.947948041312202 0 
22 1 1 5.732651409977761 2.986281794123641 0 
23 1 1 6.083626633792346 3.25773466075005 0 
24 1 1 9.552577764890604 5.994499431828108 0 
25 1 1 6.155771835050555 11.667281318103996 0 
26 1 1 2.7557674261982013 2.842345181977799 0 
27 1 1 9.441254520569773 10.485170141160898 0 
28 1 1 0.5407668171956361 6.538182079799117 0 
29 1 1 8.296904524328639 0.06792255515865252 0 
30 1 1 10.474120163062688 0.1902861837522126 0 
31 1 1 1.7425469974772059 7.704463268189168 0 
32 1 1 2.7877731706492783 0.835816235688029 0 
33 1 1 2.732636882790751 11.642864720535103 0 
34 1 1 4.213257192347301 8.904545357138607 0 
35 1 1 11.81744564294475 9.90926118905201 0 
36 1 1 6.202994261220438 3.2165121153169003 0 
37 1 1 7.777008193311337 9.538146526586567 0 
38 1 1 3.19528140344478 9.384122759643134 0 
39 1 1 11.351160651619368 6.689775418626842 0 
40 1 1 6.446302083203516 10.750882795390401 0 
41 1 1 0.7936850505653046 6.670411583003857 0 
42 1 1 9.040815072352354 9.019807979916427 0 
43 1 1 2.4853933496476084 4.664187400497403 0 
44 1 1 11.418276370296534 0.2117741323096287 0 
45 1 1 5.731736460176459 3.476387797146458 0 
46 1 1 11.234965361295462 5.421915794467364 0 
47 1 1 7.571939541146206 10.26908857100441 0 
48 1 1 1.9705868298007574 7.357585017265403 0 
49 1 1 0.7219461204531498 9.278331501662121 0 
50 1 1 7.5188454699683644 5.057247475323135 0 
51 1 1 11.877482082797426 11.070407460855078 0 
52 1 1 10.901204520137496 9.153976876676087 0 
53 1 1 0.9403820927419194 6.295491011029629 0 
54 1 1 0.7451121234400239 10.752928322713839 0 
55 1 1 7.367349099681256 1.0366440072144367 0 
56 1 1 4.05894022246684 2.668062339753665 0 
57 1 1 8.042527073173684 8.345876069396473 0 
58 1 1 9.231529798015545 5.010057030211124 0 
59 1 1 0.0761726136322323 2.3988382029695887 0 
60 1 1 0.125302483029716 1.5904148491746546 0 
61 1 1 8.597831519548803 7.04967105493566 0 
62 1 1 7.321210947810442 1.8891451970660755 0 
63 1 1 7.271150377493271 0.1734361467212428 0 
64 1 1 1.4203241184638316 7.079080094043678 0 
65 1 1 3.5995499969649596 3.723058025689883 0 
66 1 1 7.99165914483855 10.14173864050264 0 
67 1 1 8.040646192525942 7.429612813278101 0 
68 1 1 10.282126355681537 2.223389154131534 0 
69 1 1 6.221188430852485 8.683676305779617 0 
70 1 1 9.368524433619273 4.521233238369404 0 
71 1 1 0.8240031396739343 4.359717662913423 0 
72 1 1 11.883817589141195 4.992196297766834 0 
73 1 1 6.552838859462166 7.444495977605872 0 
74 1 1 3.5592306185928715 10.255239411415474 0 
75 1 1 6.565413197503579 11.534471906081363 0 
76 1 1 5.702740702545386 10.465587086703502 0 
77 1 1 6.992138400012082 11.916935712508877 0 
78 1 1 11.417039301133896 0.7838742561018175 0 
79 1 1 5.378868310233744 9.9715203268054 0 
80 1 1 9.630272416839254 2.534997332039238 0 
81 1 1 1.4752464341323022 1.1528770536405013 0 
82 1 1 1.4829664116200723 6.258090590706098 0 
83 1 1 11.217355412834376 1.7923398726372046 0 
84 1 1 6.0686312619170755 6.065114528493578 0 
85 1 1 8.96145208161136 4.28676705540824 0 
86 1 1 3.031281200638842 9.768021132754058 0 
87 1 1 9.8932514014374 7.077608393643053 0 
88 1 1 10.245010937947027 5.4848852798067815 0 
89 1 1 6.7638968950170435 6.5303857799399285 0 
90 1 1 1.677904152727069 4.585898542758056 0 
91 1 1 2.0686663942226513 8.056734573077904 0 
92 1 1 10.921883060448504 5.1487135918686935 0 
93 1 1 1.7107391556409048 8.620499699690722 0 
94 1 1 8.30999510787521 11.010422672248174 0 
95 1 1 10.099678111309625 2.2770209112085804 0 
96 1 1 6.459853243749706 1.1780485441419228 0 
97 1 1 7.3013804077734195 9.725188887073259 0 
98 1 1 7.54255961131266 1.3142723610534603 0 
99 1 1 0.11463277267197264 2.5117687822429366 0 
100 1 3 4.179994737056344 10.261752138890982 0 
101 1 3 1.1499339946111522 8.35735516600568 0 
102 1 3 8.866808625950519 9.643818792661031 0 
103 2 2 7.900324979878825 9.601933066744563 0 
104 2 2 8.586218557629776 8.916039488993611 0 
105 2 2 7.900324979878825 8.23014591124266 0 
106 2 2 8.623093930756433 9.47679117282851 0 
107 2 2 8.586218557629776 8.51425233349171 0 
108 2 2 7.9372003530054815 9.19268475057946 0 
109 2 2 7.25130677525453 9.878578328330411 0 
110 2 2 6.565413197503579 10.564471906081362 0 
111 2 2 nan nan 0 
112 3 2 7.900324979878825 9.601933066744563 0 
113 3 2 7.2144314021278735 8.916039488993611 0 
114 3 2 7.900324979878825 8.23014591124266 0 
115 3 2 8.040646192525942 8.399612813278102 0 
116 3 2 8.586218557629776 7.946039488993612 0 
117 3 2 8.726539770276894 8.115506391029053 0 
118 3 2 8.040646192525942 7.429612813278101 0 
119 3 2 8.726539770276894 8.115506391029053 0 
120 3 2 nan nan 0 
121 4 2 3.17736918481045 6.6822808532395035 0 
122 4 2 2.491475607059499 5.996387275488552 0 
123 4 2 3.4614756070594987 5.996387275488552 0 
124 4 2 2.8733370408419203 6.825771522660718 0 
125 4 2 3.4614756070594987 7.368174430990455 0 
126 4 2 2.8733370408419203 8.19755867816262 0 
127 4 2 2.187443463090969 8.883452255913571 0 
128 4 2 2.8733370408419203 9.569345833664523 0 
129 4 2 nan nan 0 
130 5 2 1.8055820293085483 6.6822808532395035 0 
131 5 2 1.805582029308548 5.712280853239504 0 
132 5 2 1.1196884515575967 5.026387275488553 0 
133 5 2 0.9332750404509864 4.178292948786545 0 
134 5 2 11.832273996590693 5.026387275488553 0 
135 5 2 0.9332750404509867 5.550080104288448 0 
136 5 2 0.933275040450987 6.520080104288447 0 
137 5 2 1.6191686182019382 7.2059736820393985 0 
138 5 2 nan nan 0 
139 6 2 5.2543560438893975 9.11048585721167 0 
140 6 2 4.568462466138446 8.424592279460718 0 
141 6 2 3.882568888387495 7.738698701709767 0 
142 6 2 5.088961933891695 6.338553243999302 0 
143 6 2 4.568462466138446 6.082805123958816 0 
144 6 2 3.7171747783897926 7.710340399501204 0 
145 6 2 3.0312812006388414 8.396233977252155 0 
146 6 2 2.3453876228878907 9.082127555003106 0 
147 6 2 nan nan 0 
148 7 2 3.882568888387495 9.11048585721167 0 
149 7 2 3.882568888387495 8.140485857211669 0 
150 7 2 3.882568888387495 7.170485857211669 0 
151 7 2 4.99826756305361 5.701691439514452 0 
152 7 2 3.882568888387495 5.798698701709767 0 
153 7 2 3.3423739853026593 5.015797861763501 0 
154 7 2 3.3423739853026593 5.9857978617635 0 
155 7 2 2.656480407551708 6.6716914395144515 0 
156 7 2 nan nan 0 
157 8 2 5.2543560438893975 9.11048585721167 0 
158 8 2 4.568462466138446 8.424592279460718 0 
159 8 2 5.2543560438893975 7.738698701709767 0 
160 8 2 6.268732437213117 5.788602399854921 0 
161 8 2 6.6261431993913 6.366911546207865 0 
162 8 2 6.552838859462166 6.474495977605872 0 
163 8 2 5.866945281711215 5.788602399854921 0 
164 8 2 6.552838859462166 6.474495977605872 0 
165 8 2 nan nan 0 
166 9 2 2.745816347888962 4.455751945252226 0 
167 9 2 2.745816347888962 3.4857519452522263 0 
168 9 2 2.059922770138011 2.799858367501275 0 
169 9 2 2.367712616394755 2.606506667244549 0 
170 9 2 2.7458163478889617 3.0839647897503237 0 
171 9 2 2.0836061941457062 3.2924002449955005 0 
172 9 2 2.7694997718966574 3.9782938227464517 0 
173 9 2 1.7994997718966572 3.978293822746452 0 
174 9 2 nan nan 0 
175 10 2 2.745816347888962 4.455751945252226 0 
176 10 2 2.745816347888962 3.4857519452522263 0 
177 10 2 3.431709925639913 2.799858367501275 0 
178 10 2 3.3899493046745572 0.7328134861426536 0 
179 10 2 4.401709925639913 1.829858367501275 0 
180 10 2 5.045842882425508 1.4187070638936046 0 
181 10 2 4.359949304674557 2.1046006416445557 0 
182 10 2 5.045842882425508 2.790494219395507 0 
183 10 2 nan nan 0 
184 11 2 2.745816347888962 4.455751945252226 0 
185 11 2 3.431709925639913 3.769858367501275 0 
186 11 2 4.401709925639913 3.7698583675012745 0 
187 11 2 4.00987384844725 4.096451604226847 0 
188 11 2 4.401709925639913 3.769858367501275 0 
189 11 2 4.695767426198201 3.8123451819777983 0 
190 11 2 3.7257674261982014 3.8123451819777987 0 
191 11 2 3.7257674261982014 2.8423451819777985 0 
192 11 2 nan nan 0 
193 12 2 8.598163825931085 2.166218344258069 0 
194 12 2 9.284057403682036 1.4803247665071178 0 
195 12 2 9.969950981432987 0.7944311887561665 0 
196 12 2 10.638691679830542 11.584082411195554 0 
197 12 2 9.969950981432987 11.507016733789262 0 
198 12 2 8.98279810207959 10.898188833444603 0 
199 12 2 8.296904524328639 10.212295255693652 0 
200 12 2 8.296904524328639 11.182295255693651 0 
201 12 2 nan nan 0 
202 13 2 8.598163825931085 2.166218344258069 0 
203 13 2 9.284057403682036 1.4803247665071178 0 
204 13 2 8.598163825931085 0.7944311887561667 0 
205 13 2 9.198453189063612 0.2265916278006065 0 
206 13 2 8.882270248180134 0.10853761100521542 0 
207 13 2 8.51255961131266 12.026857906086557 0 
208 13 2 7.54255961131266 12.026857906086557 0 
209 13 2 6.856666033561709 0.6283787833025093 0 
210 13 2 nan nan 0 
211 14 2 7.628163825931085 1.1962183442580694 0 
212 14 2 8.314057403682035 0.5103247665071181 0 
213 14 2 9.284057403682036 0.5103247665071179 0 
214 14 2 9.798887838971389 1.5606185375659478 0 
215 14 2 9.969950981432987 2.166218344258069 0 
216 14 2 8.828887838971388 2.5306185375659482 0 
217 14 2 7.8588878389713885 2.5306185375659487 0 
218 14 2 7.172994261220437 3.2165121153169 0 
219 14 2 nan nan 0 
220 15 2 10.747694982557325 1.502254375139876 0 
221 15 2 11.433588560308277 0.8163607973889248 0 
222 15 2 10.747694982557325 1.5022543751398758 0 
223 15 2 10.201529798015546 2.266482719207319 0 
224 15 2 10.061801404806374 3.158147952890827 0 
225 15 2 9.917423375766496 2.9523762969582705 0 
226 15 2 10.603316953517448 3.6382698747092217 0 
227 15 2 9.917423375766496 4.324163452460173 0 
228 15 2 nan nan 0 
229 16 2 1.5418743186289934 6.238615866282427 0 
230 16 2 2.511874318628993 6.238615866282427 0 
231 16 2 1.825980740878042 6.9245094440333785 0 
232 16 2 1.3608497272888487 7.929290409531298 0 
233 16 2 2.511874318628993 8.58040302178433 0 
234 16 2 2.732636882790751 9.3010775650332 0 
235 16 2 2.0467433050398 9.986971142784151 0 
236 16 2 2.732636882790751 10.672864720535102 0 
237 16 2 nan nan 0 
238 17 2 9.967593489933257 8.198830504088077 0 
239 17 2 9.967593489933257 7.228830504088077 0 
240 17 2 9.281699912182306 6.542936926337126 0 
241 17 2 8.521464245935498 4.735821238141151 0 
242 17 2 9.967593489933257 4.887043348586175 0 
243 17 2 9.8932514014374 4.735821238141151 0 
244 17 2 9.207357823686449 5.421714815892102 0 
245 17 2 9.8932514014374 6.107608393643053 0 
246 17 2 nan nan 0 
247 18 2 11.01417477206817 9.790184149700016 0 
248 18 2 11.01417477206817 8.820184149700015 0 
249 18 2 11.01417477206817 7.8501841497000155 0 
250 18 2 10.445658487442847 6.195686878048205 0 
251 18 2 10.328281194317219 6.194290571949065 0 
252 18 2 10.445658487442847 7.567474033550107 0 
253 18 2 11.131552065193798 8.253367611301059 0 
254 18 2 11.131552065193798 9.22336761130106 0 
255 18 2 nan nan 0 
256 19 2 0.3015892270350733 9.790184149700016 0 
257 19 2 0.3015892270350733 8.820184149700015 0 
258 19 2 11.700068349819121 8.134290571949064 0 
259 19 2 11.920858939046413 6.107809372218315 0 
260 19 2 11.01417477206817 6.478396994198113 0 
261 19 2 11.920858939046413 6.107809372218315 0 
262 19 2 11.920858939046413 5.137809372218316 0 
263 19 2 11.920858939046413 6.107809372218315 0 
264 19 2 nan nan 0 
265 20 2 2.573354803486144 1.0060858932038825 0 
266 20 2 3.2592483812370947 0.32019231545293125 0 
267 20 2 2.5733548034861435 1.0060858932038825 0 
268 20 2 3.567577450677738 0.6461433519096181 0 
269 20 2 2.5733548034861435 1.0060858932038825 0 
270 20 2 2.195790295175836 2.0179305074115206 0 
271 20 2 1.509896717424885 2.7038240851624717 0 
272 20 2 1.5098967174248852 3.6738240851624715 0 
273 20 2 nan nan 0 
274 21 2 2.857461225735193 1.6919794709548335 0 
275 21 2 3.8274612257351928 1.6919794709548333 0 
276 21 2 3.8274612257351928 0.7219794709548333 0 
277 21 2 4.05894022246684 11.842435040288665 0 
278 21 2 4.7974612257351925 11.836352171489832 0 
279 21 2 4.05894022246684 11.842435040288665 0 
280 21 2 4.05894022246684 0.7280623397536652 0 
281 21 2 4.05894022246684 1.6980623397536652 0 
282 21 2 nan nan 0 
283 22 2 12.048641817483771 2.9753212954623827 0 
284 22 2 12.048641817483771 2.005321295462383 0 
285 22 2 11.36274823973282 1.3194277177114317 0 
286 22 2 10.055746821500659 11.60652766692597 0 
287 22 2 11.36274823973282 11.46380041824643 0 
288 22 2 9.085746821500658 0.4921549663909711 0 
289 22 2 8.115746821500657 0.49215496639097134 0 
290 22 2 7.145746821500657 0.49215496639097156 0 
291 22 2 nan nan 0 
292 23 2 11.07864181748377 2.005321295462383 0 
293 23 2 11.764535395234722 2.691214873213334 0 
294 23 2 0.36605627245067396 3.3771084509642852 0 
295 23 2 0.9226815288353212 3.662094685373988 0 
296 23 2 1.0519498502016251 3.661214873213334 0 
297 23 2 0.6385751065862717 4.34798826312494 0 
298 23 2 0.6385751065862717 5.317988263124939 0 
299 23 2 12.03705422937032 6.0038818408758905 0 
300 23 2 nan nan 0 
301 24 2 3.0006953370673486 4.890162052044569 0 
302 24 2 2.3148017593163974 4.204268474293618 0 
303 24 2 3.0006953370673486 3.5183748965426664 0 
304 24 2 3.6749706767249073 2.3003882163726903 0 
305 24 2 3.9706953370673483 2.548374896542666 0 
306 24 2 4.3608642544758585 0.6444946386217388 0 
307 24 2 5.04675783222681 1.33038821637269 0 
308 24 2 5.04675783222681 2.30038821637269 0 
309 24 2 nan nan 0 
310 25 2 4.372482492569251 4.890162052044569 0 
311 25 2 3.402482492569251 4.890162052044569 0 
312 25 2 2.7165889148183 4.204268474293618 0 
313 25 2 4.427733056041395 3.541841082999099 0 
314 25 2 4.372482492569251 3.518374896542666 0 
315 25 2 5.113626633792347 1.8859475052481478 0 
316 25 2 6.083626633792346 1.8859475052481476 0 
317 25 2 5.397733056041395 2.5718410829990987 0 
318 25 2 nan nan 0 
319 26 2 0.7370971562271772 10.95604566430879 0 
320 26 2 0.737097156227177 9.98604566430879 0 
321 26 2 1.422990733978128 9.300152086557839 0 
322 26 2 0.6968792387207489 7.086734573077904 0 
323 26 2 1.4229907339781276 7.9283649310559365 0 
324 26 2 0.6968792387207491 7.086734573077904 0 
325 26 2 1.3827728164717001 6.400840995326953 0 
326 26 2 2.0686663942226513 7.086734573077904 0 
327 26 2 nan nan 0 
328 27 2 0.4796029259537973 1.6424593972448653 0 
329 27 2 1.1654965037047482 0.9565658194939141 0 
330 27 2 0.47960292595379694 0.270672241742963 0 
331 27 2 1.084632772671972 11.852567171774131 0 
332 27 2 0.7637093482028456 11.66915136452701 0 
333 27 2 0.8005263504229233 0.45408804899008304 0 
334 27 2 0.11463277267197236 1.1399816267410343 0 
335 27 2 0.8005263504229236 1.8258752044919855 0 
336 27 2 nan nan 0 
337 28 2 11.878082048737845 1.9265658194939141 0 
338 28 2 11.192188470986894 2.6124593972448653 0 
339 28 2 10.506294893235943 1.9265658194939141 0 
340 28 2 11.253352362228732 2.256394924297215 0 
341 28 2 11.476294893235943 2.8965658194939143 0 
342 28 2 11.939245939979683 3.912288502048166 0 
343 28 2 0.5407668171956357 4.598182079799117 0 
344 28 2 0.5407668171956359 5.568182079799117 0 
345 28 2 nan nan 0 
346 29 2 2.3615170030706536 6.406802948491003 0 
347 29 2 3.0474105808216043 5.720909370740052 0 
348 29 2 3.7333041585725555 5.035015792989101 0 
349 29 2 3.053606194145706 3.6941874004974027 0 
350 29 2 2.361517003070653 3.6632286374871983 0 
351 29 2 2.769499771896657 3.008293822746452 0 
352 29 2 1.799499771896657 3.0082938227464524 0 
353 29 2 1.7994997718966572 3.978293822746452 0 
354 29 2 nan nan 0 
355 30 2 2.3615170030706536 6.406802948491003 0 
356 30 2 2.3615170030706536 5.436802948491003 0 
357 30 2 2.3615170030706536 4.4668029484910035 0 
358 30 2 2.196660394946586 2.9422885020481657 0 
359 30 2 2.361517003070653 3.095015792989101 0 
360 30 2 0.5407668171956355 3.6281820797991173 0 
361 30 2 0.5407668171956357 4.598182079799117 0 
362 30 2 0.5407668171956359 5.568182079799117 0 
363 30 2 nan nan 0 
364 31 2 3.0474105808216043 6.6909093707400515 0 
365 31 2 3.0474105808216043 5.720909370740052 0 
366 31 2 3.7333041585725555 5.035015792989101 0 
367 31 2 3.8247535671219737 3.5145162797022933 0 
368 31 2 4.419197736323507 3.3791222152381497 0 
369 31 2 3.540647144872925 4.200409857453245 0 
370 31 2 2.854753567121974 4.886303435204196 0 
371 31 2 2.168859989371023 5.572197012955147 0 
372 31 2 nan nan 0 
373 32 2 0.8847898214915721 0.8190257381810091 0 
374 32 2 0.8847898214915723 1.789025738181009 0 
375 32 2 1.5706833992425233 1.1031321604300577 0 
376 32 2 1.668086692945348 1.186451604226848 0 
377 32 2 2.540683399242523 2.0731321604300574 0 
378 32 2 3.0398738484472503 1.1864516042268478 0 
379 32 2 2.06987384844725 1.186451604226848 0 
380 32 2 2.7557674261982013 1.872345181977799 0 
381 32 2 nan nan 0 
382 33 2 0.2185227523396634 8.977948041312201 0 
383 33 2 0.21852275233966323 8.0079480413122 0 
384 33 2 0.21852275233966306 7.037948041312201 0 
385 33 2 11.176625961893297 5.73146158825473 0 
386 33 2 0.21852275233966278 5.6661608858102985 0 
387 33 2 11.862519539644248 6.015568010503778 0 
388 33 2 11.862519539644248 6.985568010503778 0 
389 33 2 0.4640404168602009 7.671461588254729 0 
390 33 2 nan nan 0 
391 34 2 5.732651409977761 2.016281794123641 0 
392 34 2 5.732651409977761 1.0462817941236409 0 
393 34 2 5.04675783222681 0.3603882163726898 0 
394 34 2 3.817033589634204 11.2972497541755 0 
395 34 2 5.330864254475858 11.758867339156737 0 
396 34 2 2.445246434132302 11.2972497541755 0 
397 34 2 2.445246434132302 0.1828770536405011 0 
398 34 2 2.445246434132302 1.152877053640501 0 
399 34 2 nan nan 0 
400 35 2 6.083626633792346 2.2877346607500497 0 
401 35 2 6.7695202115432975 1.6018410829990986 0 
402 35 2 7.455413789294249 0.9159475052481473 0 
403 35 2 8.241150377493272 0.1734361467212423 0 
404 35 2 9.395413789294249 0.9159475052481468 0 
405 35 2 9.897043955244223 11.57191526950529 0 
406 35 2 8.927043955244223 11.57191526950529 0 
407 35 2 8.241150377493272 0.17343614672124255 0 
408 35 2 nan nan 0 
409 36 2 9.552577764890604 6.9644994318281075 0 
410 36 2 8.866684187139652 6.278605854077156 0 
411 36 2 9.552577764890604 6.9644994318281075 0 
412 36 2 8.78808923870542 7.439095639888499 0 
413 36 2 8.180790609388701 8.33628658733001 0 
414 36 2 7.818089238705419 8.409095639888498 0 
415 36 2 7.132195660954467 9.09498921763945 0 
416 36 2 7.132195660954467 10.06498921763945 0 
417 36 2 nan nan 0 
418 37 2 10.238471342641555 5.308605854077157 0 
419 37 2 10.924364920392506 4.622712276326205 0 
420 37 2 10.238471342641555 3.9368186985752542 0 
421 37 2 9.86317820579356 3.080128638965462 0 
422 37 2 11.208471342641555 2.966818698575254 0 
423 37 2 10.54907178354451 3.3642350612145107 0 
424 37 2 11.234965361295462 4.050128638965462 0 
425 37 2 11.920858939046413 4.736022216716413 0 
426 37 2 nan nan 0 
427 38 2 6.841665412801506 10.981387740353044 0 
428 38 2 6.841665412801506 10.011387740353044 0 
429 38 2 7.527558990552457 9.325494162602093 0 
430 38 2 7.678031977763032 7.919254979256023 0 
431 38 2 8.497558990552458 8.355494162602092 0 
432 38 2 8.363925555513983 9.575148557006974 0 
433 38 2 7.678031977763033 10.261042134757925 0 
434 38 2 7.678031977763033 11.231042134757926 0 
435 38 2 nan nan 0 
436 39 2 6.155771835050555 10.697281318103995 0 
437 39 2 5.469878257299603 10.011387740353044 0 
438 39 2 4.783984679548652 9.325494162602093 0 
439 39 2 4.245124196343823 7.629345833664521 0 
440 39 2 6.155771835050555 7.95370700710019 0 
441 39 2 4.245124196343823 7.629345833664521 0 
442 39 2 3.5592306185928715 8.315239411415472 0 
443 39 2 3.5592306185928715 9.285239411415473 0 
444 39 2 nan nan 0 
445 40 2 2.7557674261982013 3.8123451819777987 0 
446 40 2 2.7557674261982013 2.842345181977799 0 
447 40 2 1.7857674261982013 2.842345181977799 0 
448 40 2 2.428440575228156 3.7067825349363153 0 
449 40 2 1.7857674261982015 4.214132337479701 0 
450 40 2 1.7425469974772052 5.362676112687266 0 
451 40 2 1.7425469974772054 6.332676112687266 0 
452 40 2 1.0566534197262545 7.018569690438217 0 
453 40 2 nan nan 0 
454 41 2 9.441254520569773 9.515170141160898 0 
455 41 2 8.755360942818822 8.829276563409946 0 
456 41 2 8.06946736506787 8.143382985658995 0 
457 41 2 7.191188430852485 7.311889150277715 0 
458 41 2 9.039467365067871 7.1733829856589955 0 
459 41 2 7.877082008603436 7.027782728028666 0 
460 41 2 6.907082008603436 7.027782728028666 0 
461 41 2 6.221188430852485 7.713676305779617 0 
462 41 2 nan nan 0 
463 42 2 1.226660394946587 5.852288502048165 0 
464 42 2 1.2266603949465869 4.882288502048166 0 
465 42 2 1.2266603949465866 3.912288502048166 0 
466 42 2 0.7344305407128796 3.081399360790825 0 
467 42 2 0.5407668171956355 4.1963949242972145 0 
468 42 2 1.420324118463831 4.737292938541776 0 
469 42 2 0.73443054071288 5.423186516292727 0 
470 42 2 0.7344305407128803 6.393186516292727 0 
471 42 2 nan nan 0 
472 43 2 9.26690452432864 0.06792255515865228 0 
473 43 2 8.296904524328639 0.0679225551586524 0 
474 43 2 7.326904524328639 0.06792255515865253 0 
475 43 2 6.225443574715911 1.665377292437029 0 
476 43 2 5.671010946577688 0.7538161329096038 0 
477 43 2 5.941337152466862 2.3512708701879803 0 
478 43 2 5.255443574715911 3.0371644479389315 0 
479 43 2 4.56954999696496 3.7230580256898826 0 
480 43 2 nan nan 0 
481 44 2 10.474120163062688 11.304658884287212 0 
482 44 2 10.474120163062688 10.334658884287212 0 
483 44 2 9.504120163062687 10.334658884287212 0 
484 44 2 8.977104525561394 10.945837164348221 0 
485 44 2 8.132333007560785 11.706446039789114 0 
486 44 2 8.977104525561394 0.23325161931512417 0 
487 44 2 8.977104525561394 1.2032516193151241 0 
488 44 2 8.007104525561394 1.2032516193151244 0 
489 44 2 nan nan 0 
490 45 2 1.0566534197262545 7.018569690438217 0 
491 45 2 1.7425469974772054 6.332676112687266 0 
492 45 2 1.056653419726254 5.646782534936315 0 
493 45 2 2.1654722060672063 4.328624427501955 0 
494 45 2 1.0566534197262536 4.274995379434412 0 
495 45 2 2.1654722060672063 4.328624427501955 0 
496 45 2 1.4795786283162553 5.014518005252906 0 
497 45 2 0.7936850505653044 5.7004115830038575 0 
498 45 2 nan nan 0 
499 46 2 3.757773170649278 0.8358162356880288 0 
500 46 2 3.071879592898327 0.1499226579370777 0 
501 46 2 3.757773170649278 11.548401780721125 0 
502 46 2 4.803959665998755 9.66652766692597 0 
503 46 2 5.413666748400229 10.862508202970174 0 
504 46 2 5.773959665998754 10.636527666925971 0 
505 46 2 5.773959665998754 11.60652766692597 0 
506 46 2 6.459853243749706 0.20804854414192286 0 
507 46 2 nan nan 0 
508 47 2 2.101879592898327 0.14992265793707793 0 
509 47 2 1.415986015147376 11.548401780721125 0 
510 47 2 2.101879592898327 10.862508202970174 0 
511 47 2 2.7293528563813503 11.179569020922646 0 
512 47 2 3.071879592898327 11.832508202970175 0 
513 47 2 2.4452464341323017 11.865462598673597 0 
514 47 2 1.475246434132302 11.865462598673599 0 
515 47 2 0.7893528563813509 0.46698347588955025 0 
516 47 2 nan nan 0 
517 48 2 2.732636882790751 10.672864720535102 0 
518 48 2 2.0467433050398 9.986971142784151 0 
519 48 2 2.0467433050398 9.01697114278415 0 
520 48 2 3.082526311142807 7.650499699690722 0 
521 48 2 2.0467433050398 7.645183987282248 0 
522 48 2 3.082526311142807 6.27871254418882 0 
523 48 2 2.396632733391856 6.964606121939771 0 
524 48 2 2.396632733391856 7.934606121939771 0 
525 48 2 nan nan 0 
526 49 2 6.888887838971389 2.530618537565949 0 
527 49 2 7.8588878389713885 2.5306185375659487 0 
528 49 2 8.544781416722339 1.8447249598149975 0 
529 49 2 9.174739047719315 2.029566742070281 0 
530 49 2 9.916568572224241 1.8447249598149975 0 
531 49 2 8.890632625470266 2.715460319821233 0 
532 49 2 8.204739047719315 3.401353897572184 0 
533 49 2 8.204739047719315 4.371353897572184 0 
534 49 2 nan nan 0 
535 50 2 8.462901771062288 8.852252948835616 0 
536 50 2 7.777008193311337 8.166359371084665 0 
537 50 2 8.747008193311338 8.166359371084665 0 
538 50 2 8.30999510787521 8.66863551674627 0 
539 50 2 8.747008193311338 8.166359371084665 0 
540 50 2 8.995888685626161 8.384529094497221 0 
541 50 2 8.30999510787521 9.070422672248172 0 
542 50 2 8.30999510787521 10.040422672248173 0 
543 50 2 nan nan 0 
544 51 2 7.091114615560386 8.852252948835616 0 
545 51 2 6.405221037809435 8.166359371084665 0 
546 51 2 6.405221037809435 7.196359371084665 0 
547 51 2 7.818089238705419 7.037308484386596 0 
548 51 2 6.405221037809435 7.196359371084665 0 
549 51 2 6.446302083203516 8.409095639888498 0 
550 51 2 7.132195660954467 9.09498921763945 0 
551 51 2 6.446302083203516 9.7808827953904 0 
552 51 2 nan nan 0 
553 52 2 7.777008193311337 8.568146526586567 0 
554 52 2 8.462901771062288 7.882252948835616 0 
555 52 2 8.462901771062288 6.912252948835616 0 
556 52 2 8.881937941797853 5.393777477184709 0 
557 52 2 9.14879534881324 5.256359371084665 0 
558 52 2 8.597831519548803 4.7078838994337575 0 
559 52 2 7.911937941797852 5.393777477184709 0 
560 52 2 8.597831519548803 6.07967105493566 0 
561 52 2 nan nan 0 
562 53 2 3.19528140344478 8.414122759643133 0 
563 53 2 2.5093878256938287 7.728229181892182 0 
564 53 2 3.1952814034447794 7.042335604141231 0 
565 53 2 4.126347127475505 5.430840995326953 0 
566 53 2 2.5093878256938282 5.38644202639028 0 
567 53 2 3.4404535497245536 5.714947417576002 0 
568 53 2 3.4404535497245536 6.6849474175760015 0 
569 53 2 2.7545599719736025 7.370840995326953 0 
570 53 2 nan nan 0 
571 54 2 3.8811749811957306 8.698229181892183 0 
572 54 2 4.567068558946682 8.012335604141231 0 
573 54 2 3.8811749811957306 7.32644202639028 0 
574 54 2 4.70621616176419 4.472705046687075 0 
575 54 2 3.8811749811957306 5.954654870888378 0 
576 54 2 4.70621616176419 4.472705046687075 0 
577 54 2 5.392109739515141 5.158598624438026 0 
578 54 2 6.078003317266092 5.844492202188977 0 
579 54 2 nan nan 0 
580 55 2 11.351160651619368 5.719775418626842 0 
581 55 2 12.03705422937032 5.033881840875891 0 
582 55 2 11.351160651619368 4.34798826312494 0 
583 55 2 11.289210531268399 2.9523762969582705 0 
584 55 2 12.03705422937032 2.6920946853739887 0 
585 55 2 10.603316953517448 2.668269874709222 0 
586 55 2 10.603316953517448 3.6382698747092217 0 
587 55 2 9.917423375766496 4.324163452460173 0 
588 55 2 nan nan 0 
589 56 2 11.351160651619368 5.719775418626842 0 
590 56 2 12.03705422937032 5.033881840875891 0 
591 56 2 11.351160651619368 4.34798826312494 0 
592 56 2 11.482030433639293 3.6204091422649314 0 
593 56 2 11.635267073868418 3.662094685373988 0 
594 56 2 0.7694448886061966 3.6204091422649314 0 
595 56 2 11.883817589141195 3.620409142264932 0 
596 56 2 0.48533846635714717 4.306302720015883 0 
597 56 2 nan nan 0 
598 57 2 6.446302083203516 9.7808827953904 0 
599 57 2 7.132195660954467 9.09498921763945 0 
600 57 2 7.132195660954467 8.124989217639449 0 
601 57 2 6.66885903702404 7.027825657776199 0 
602 57 2 7.132195660954467 6.184989217639449 0 
603 57 2 7.354752614774991 5.371932080025248 0 
604 57 2 8.040646192525942 6.057825657776199 0 
605 57 2 8.726539770276894 6.74371923552715 0 
606 57 2 nan nan 0 
607 58 2 9.726708650103305 8.333914402165476 0 
608 58 2 9.040815072352354 7.648020824414525 0 
609 58 2 9.726708650103305 6.962127246663574 0 
610 58 2 9.363446300340453 6.428164329498835 0 
611 58 2 9.040815072352354 7.246233668912622 0 
612 58 2 8.677552722589501 8.084057907249786 0 
613 58 2 9.363446300340453 8.769951485000737 0 
614 58 2 8.677552722589501 9.455845062751688 0 
615 58 2 nan nan 0 
616 59 2 9.726708650103305 8.333914402165476 0 
617 59 2 9.726708650103305 7.363914402165476 0 
618 59 2 10.412602227854256 6.678020824414525 0 
619 59 2 10.238595781452421 5.930244481657227 0 
620 59 2 9.726708650103305 6.962127246663574 0 
621 59 2 10.238595781452421 7.302031637159129 0 
622 59 2 10.238595781452421 8.27203163715913 0 
623 59 2 9.55270220370147 8.95792521491008 0 
624 59 2 nan nan 0 
625 60 2 1.7994997718966572 3.978293822746452 0 
626 60 2 1.799499771896657 3.0082938227464524 0 
627 60 2 2.485393349647608 3.6941874004974036 0 
628 60 2 1.3827728164717 3.4908409953269537 0 
629 60 2 2.2012869273985594 4.380080978248355 0 
630 60 2 2.0686663942226513 5.146734573077905 0 
631 60 2 2.0686663942226513 6.116734573077904 0 
632 60 2 2.0686663942226513 7.086734573077904 0 
633 60 2 nan nan 0 
634 61 2 0.30390366976153516 0.21177413230962844 0 
635 61 2 0.30390366976153516 11.326146832844628 0 
636 61 2 0.30390366976153516 0.2117741323096285 0 
637 61 2 0.857686871806159 0.19321017653733485 0 
638 61 2 11.702382792545583 12.012040410595578 0 
639 61 2 11.286165994590206 0.8791037542882864 0 
640 61 2 10.600272416839255 1.5649973320392376 0 
641 61 2 10.600272416839255 2.5349973320392376 0 
642 61 2 nan nan 0 
643 62 2 6.4176300379274105 2.790494219395507 0 
644 62 2 6.4176300379274105 1.820494219395507 0 
645 62 2 7.103523615678362 1.1346006416445555 0 
646 62 2 7.589664926109458 0.5731927444044357 0 
647 62 2 6.133523615678362 0.16460064164455568 0 
648 62 2 7.589664926109458 1.944979899906338 0 
649 62 2 8.27555850386041 2.630873477657289 0 
650 62 2 8.27555850386041 3.600873477657289 0 
651 62 2 nan nan 0 
652 63 2 8.257833118897157 9.583194993253459 0 
653 63 2 8.257833118897157 8.613194993253458 0 
654 63 2 8.257833118897157 7.643194993253458 0 