20241016B1C1

1443 atoms
1490 bonds
                   
3 atom types
1 bond types

0 12.084372700534999 xlo xhi
0 12.084372700534999 ylo yhi
0 12.084372700534999 zlo zhi

Masses

1 1
2 1
3 1

Atoms # full

1 1 1 7.900324979878825 10.571933066744563 5.483865594524117 
2 1 1 2.4914756070594994 7.368174430990455 2.1883449105574027 
3 1 1 4.568462466138446 9.79637943496262 10.232666393095583 
4 1 1 3.4317099256399133 5.141645523003177 8.689211927613705 
5 1 1 7.628163825931085 2.1662183442580694 1.3436054950880083 
6 1 1 10.747694982557325 2.472254375139876 10.460535488424465 
7 1 1 0.5718743186289933 6.238615866282427 7.828818845213328 
8 1 1 9.967593489933257 9.168830504088078 10.616063615585714 
9 1 1 5.814388903732802 0.6476077031757732 0.4734067683141737 
10 1 1 11.700068349819121 10.476077727450967 3.9065008262271683 
11 1 1 0.9332750404509873 7.89186725979035 2.8010298593286445 
12 1 1 11.1696128402798 2.7664885538955715 11.137917710422634 
13 1 1 11.541555098837163 9.717165553459248 7.6004261852530535 
14 1 1 1.887461225735193 1.6919794709548337 8.714062302107726 
15 1 1 11.07864181748377 2.975321295462383 7.042041365614078 
16 1 1 3.6865889148182998 5.57605562979552 1.7655947020949647 
17 1 1 0.05120357847622621 11.641939242059742 6.958516676120674 
18 1 1 0.47960292595379744 2.6124593972448653 1.351073595056696 
19 1 1 2.3615170030706536 7.376802948491003 6.56579180946478 
20 1 1 0.198896243740621 0.1331321604300579 9.141392428026752 
21 1 1 0.21852275233966356 9.947948041312202 10.40525685096625 
22 1 1 5.732651409977761 2.986281794123641 0.7173344841148855 
23 1 1 6.083626633792346 3.25773466075005 0.2749482578853254 
24 1 1 9.552577764890604 5.994499431828108 0.1941512185927783 
25 1 1 6.155771835050555 11.667281318103996 2.2374242353453644 
26 1 1 2.7557674261982013 2.842345181977799 5.998778492360915 
27 1 1 9.441254520569773 10.485170141160898 1.2741159101179416 
28 1 1 0.5407668171956361 6.538182079799117 2.8110002672441388 
29 1 1 8.296904524328639 0.06792255515865252 5.53429562208893 
30 1 1 10.474120163062688 0.1902861837522126 4.516781332957267 
31 1 1 1.7425469974772059 7.704463268189168 4.043908975063835 
32 1 1 2.7877731706492783 0.835816235688029 4.866008850588264 
33 1 1 2.732636882790751 11.642864720535103 7.109235230650471 
34 1 1 4.213257192347301 8.904545357138607 11.867705124525967 
35 1 1 11.81744564294475 9.90926118905201 1.904131988207862 
36 1 1 6.202994261220438 3.2165121153169003 4.267271212831999 
37 1 1 7.777008193311337 9.538146526586567 4.638841329021516 
38 1 1 3.19528140344478 9.384122759643134 3.7850619490546835 
39 1 1 11.351160651619368 6.689775418626842 8.193476304809156 
40 1 1 6.446302083203516 10.750882795390401 1.4109396255108695 
41 1 1 0.7936850505653046 6.670411583003857 7.357536809622633 
42 1 1 9.040815072352354 9.019807979916427 5.575571317032164 
43 1 1 2.4853933496476084 4.664187400497403 5.573898912554197 
44 1 1 11.418276370296534 0.2117741323096287 0.4165705195171044 
45 1 1 5.731736460176459 3.476387797146458 11.438074490317511 
46 1 1 11.234965361295462 5.421915794467364 2.4278195397488576 
47 1 1 7.571939541146206 10.26908857100441 3.512127354657571 
48 1 1 1.9705868298007574 7.357585017265403 11.603531089105843 
49 1 1 0.7219461204531498 9.278331501662121 5.834516139538392 
50 1 1 7.5188454699683644 5.057247475323135 5.6600919412905375 
51 1 1 11.877482082797426 11.070407460855078 2.1114088886321607 
52 1 1 10.901204520137496 9.153976876676087 5.817726883377009 
53 1 1 0.9403820927419194 6.295491011029629 11.620431169089619 
54 1 1 0.7451121234400239 10.752928322713839 8.633706343633813 
55 1 1 7.367349099681256 1.0366440072144367 8.105254018718409 
56 1 1 4.05894022246684 2.668062339753665 7.6761206733576985 
57 1 1 8.042527073173684 8.345876069396473 6.895023170357947 
58 1 1 9.231529798015545 5.010057030211124 9.194666173613903 
59 1 1 0.0761726136322323 2.3988382029695887 5.004353599231748 
60 1 1 0.125302483029716 1.5904148491746546 5.57010194435023 
61 1 1 8.597831519548803 7.04967105493566 3.2373575291837597 
62 1 1 7.321210947810442 1.8891451970660755 4.2202902882568205 
63 1 1 7.271150377493271 0.1734361467212428 0.7075233869870646 
64 1 1 1.4203241184638316 7.079080094043678 1.9714305334361706 
65 1 1 3.5995499969649596 3.723058025689883 5.97357892674306 
66 1 1 7.99165914483855 10.14173864050264 6.6088054189330805 
67 1 1 8.040646192525942 7.429612813278101 0.9867168133064179 
68 1 1 10.282126355681537 2.223389154131534 9.036521793705147 
69 1 1 6.221188430852485 8.683676305779617 0.21306749999507357 
70 1 1 9.368524433619273 4.521233238369404 0.39112452663595476 
71 1 1 0.8240031396739343 4.359717662913423 7.180914731434393 
72 1 1 11.883817589141195 4.992196297766834 7.537867599822357 
73 1 1 6.552838859462166 7.444495977605872 8.72261638318212 
74 1 1 3.5592306185928715 10.255239411415474 3.2861451249464464 
75 1 1 6.565413197503579 11.534471906081363 7.445978796514289 
76 1 1 5.702740702545386 10.465587086703502 8.761921568637092 
77 1 1 6.992138400012082 11.916935712508877 5.07789932156229 
78 1 1 11.417039301133896 0.7838742561018175 4.683220070787104 
79 1 1 5.378868310233744 9.9715203268054 1.5758065216521102 
80 1 1 9.630272416839254 2.534997332039238 3.2617408452288643 
81 1 1 1.4752464341323022 1.1528770536405013 1.9360668014831375 
82 1 1 1.4829664116200723 6.258090590706098 1.6732376560713726 
83 1 1 11.217355412834376 1.7923398726372046 7.93697871732576 
84 1 1 6.0686312619170755 6.065114528493578 12.053836481902344 
85 1 1 8.96145208161136 4.28676705540824 9.928239098736464 
86 1 1 3.031281200638842 9.768021132754058 9.487443930226638 
87 1 1 9.8932514014374 7.077608393643053 10.630507651644702 
88 1 1 10.245010937947027 5.4848852798067815 7.265455752722595 
89 1 1 6.7638968950170435 6.5303857799399285 5.284972291551776 
90 1 1 1.677904152727069 4.585898542758056 2.1694713152893574 
91 1 1 2.0686663942226513 8.056734573077904 7.123549657682364 
92 1 1 10.921883060448504 5.1487135918686935 2.3194040230806876 
93 1 1 1.7107391556409048 8.620499699690722 7.535585597957384 
94 1 1 8.30999510787521 11.010422672248174 9.027089643927193 
95 1 1 10.099678111309625 2.2770209112085804 5.290812631600278 
96 1 1 6.459853243749706 1.1780485441419228 7.48376946244033 
97 1 1 7.3013804077734195 9.725188887073259 10.645217650758921 
98 1 1 7.54255961131266 1.3142723610534603 1.2018698084325021 
99 1 1 0.11463277267197264 2.5117687822429366 3.0738934197821863 
100 1 3 4.179994737056344 10.261752138890982 11.707801256797932 
101 1 3 1.1499339946111522 8.35735516600568 10.524640236751171 
102 1 3 8.866808625950519 9.643818792661031 9.41917502612096 
103 2 2 8.400324979878825 10.071933066744563 6.190972375710665 
104 2 2 7.900324979878825 9.571933066744563 5.483865594524117 
105 2 2 7.900324979878825 9.189249634379474 6.407745127035404 
106 2 2 7.900324979878825 8.806566202014384 7.331624659546691 
107 2 2 7.425801461128314 7.750204109945339 7.387718712970658 
108 2 2 7.425801461128314 8.674083642456626 7.770402145335748 
109 2 2 7.925801461128314 9.174083642456626 7.0632953641492 
110 2 2 7.218694679941767 9.881190423643174 7.0632953641492 
111 2 2 6.565413197503579 10.534471906081363 7.445978796514289 
112 3 2 8.170923029951924 10.301335016671464 4.55998606201283 
113 3 2 7.463816248765376 9.594228235484916 4.55998606201283 
114 3 2 7.734414298838474 9.323630185411817 3.636106529501543 
115 3 2 8.234414298838473 8.823630185411817 2.9289997483149954 
116 3 2 7.657962760160853 8.812296245643191 2.2932797781827947 
117 3 2 7.657962760160853 7.888416713131905 1.910596345817705 
118 3 2 7.657962760160853 6.888416713131905 1.910596345817705 
119 3 2 7.657962760160853 7.812296245643192 2.2932797781827947 
120 3 2 7.387364710087755 8.08289429571629 1.3694002456715078 
121 4 2 2.9914756070594994 6.868174430990455 1.4812381293708552 
122 4 2 2.9914756070594994 6.485490998625365 2.4051176618821417 
123 4 2 3.6447570894976877 7.138772481063553 2.7878010942472313 
124 4 2 3.9153551395707864 7.409370531136651 1.8639215617359446 
125 4 2 3.0180345184466737 7.592722967709632 2.1454928411104204 
126 4 2 2.3109277372601262 8.29982974889618 2.1454928411104204 
127 4 2 2.581525787333225 8.570427798969279 3.069372373621707 
128 4 2 2.581525787333225 9.277534580155827 2.3622655924351594 
129 4 2 2.8521238374063236 9.548132630228926 3.2861451249464464 
130 5 2 2.2208775569864008 7.097576380917356 1.264465378046116 
131 5 2 2.491475607059499 6.826978330844258 2.1883449105574027 
132 5 2 2.491475607059499 5.826978330844258 2.1883449105574027 
133 5 2 3.1985823882460465 5.11987154965771 2.1883449105574027 
134 5 2 2.5104360554004614 4.900492682467778 2.9595425271097517 
135 5 2 1.8571545729622736 5.553774164905967 3.3422259594748414 
136 5 2 1.8571545729622738 6.260880946092515 4.049332740661389 
137 5 2 1.5865565228891754 6.531478996165613 3.1254532081501023 
138 5 2 0.9332750404509872 7.184760478603802 3.508136640515192 
139 6 2 4.568462466138446 8.79637943496262 10.232666393095583 
140 6 2 4.568462466138446 8.089272653776073 9.525559611909035 
141 6 2 4.568462466138446 7.706589221410983 10.449439144420321 
142 6 2 3.915180983700258 7.053307738972795 10.83212257678541 
143 6 2 3.0312812006388414 6.447788421814757 10.735746811559382 
144 6 2 2.3779997182006536 7.101069904252946 11.118430243924472 
145 6 2 3.031281200638842 7.754351386691134 11.501113676289561 
146 6 2 3.031281200638842 8.461458167877682 10.794006895103013 
147 6 2 3.031281200638842 8.844141600242772 9.870127362591727 
148 7 2 5.068462466138446 9.29637943496262 10.93977317428213 
149 7 2 4.415180983700258 8.643097952524432 11.32245660664722 
150 7 2 3.9151809837002576 8.143097952524432 12.029563387833768 
151 7 2 3.2080742025137097 7.435991171337884 12.029563387833768 
152 7 2 2.5700430134905865 6.433705484754116 0.19473503974938566 
153 7 2 2.5700430134905865 6.433705484754116 11.279107740284385 
154 7 2 1.9167615310523982 5.780424002315927 11.661791172649474 
155 7 2 2.6238683122389457 5.780424002315927 0.2845252533010232 
156 7 2 2.6238683122389457 6.704303534827214 11.986214521470933 
157 8 2 5.275569247324993 9.089272653776073 10.232666393095583 
158 8 2 5.775569247324993 8.589272653776073 10.93977317428213 
159 8 2 5.775569247324993 7.589272653776073 10.93977317428213 
160 8 2 5.775569247324993 6.882165872589525 10.232666393095583 
161 8 2 6.282240809389067 6.881004708719321 9.27121049658756 
162 8 2 6.282240809389067 6.1738979275327734 8.564103715401012 
163 8 2 6.552838859462165 6.444495977605872 9.487983247912299 
164 8 2 5.899557377023977 5.791214495167684 9.105299815547209 
165 8 2 6.552838859462166 6.444495977605872 8.72261638318212 
166 9 2 3.1611118755668146 4.871047472930079 7.765332395102418 
167 9 2 2.5078303931286263 4.217765990491891 8.148015827467509 
168 9 2 2.5078303931286263 3.835082558126801 7.224136294956222 
169 9 2 1.854548910690438 3.181801075688613 7.606819727321311 
170 9 2 2.1027099172825183 3.0332010867995693 7.587568658617123 
171 9 2 2.1027099172825183 2.326094305613022 6.880461877430575 
172 9 2 2.1027099172825183 3.0332010867995693 7.587568658617122 
173 9 2 2.1027099172825183 3.740307867986117 6.880461877430574 
174 9 2 1.83211186720942 4.0109059180592155 5.956582344919287 
175 10 2 3.4317099256399133 4.758962090638088 9.613091460124991 
176 10 2 2.724603144453366 4.05185530945154 9.613091460124991 
177 10 2 3.3778846268915537 3.3985738270133514 9.230408027759902 
178 10 2 4.301764159402841 3.398573827013351 8.847724595394812 
179 10 2 5.078454977738271 1.8992267821969826 9.131511525441136 
180 10 2 5.078454977738271 1.8992267821969824 10.131511525441136 
181 10 2 5.731736460176459 2.5525082646351707 10.514194957806225 
182 10 2 6.0023345102495576 2.8231063147082693 11.438074490317511 
183 10 2 5.078454977738271 2.82310631470827 11.055391057952422 
184 11 2 3.1611118755668146 4.871047472930079 7.765332395102418 
185 11 2 3.1611118755668146 3.871047472930079 7.765332395102418 
186 11 2 3.4317099256399133 3.6004494228569803 6.841452862591131 
187 11 2 4.3555894581512 3.60044942285698 7.224136294956221 
188 11 2 3.97254017752294 2.752554968426161 6.539974592507113 
189 11 2 3.97254017752294 3.1352384007912506 5.616095059995826 
190 11 2 4.679646958709488 3.842345181977798 5.616095059995826 
191 11 2 3.7557674261982013 3.8423451819777985 5.998778492360915 
192 11 2 3.7557674261982013 2.8423451819777985 5.998778492360915 
193 12 2 7.628163825931085 1.7835349118929795 2.267485027599295 
194 12 2 6.974882343492896 1.1302534294547915 2.6501684599643847 
195 12 2 6.2677755623063485 0.423146648268244 2.6501684599643847 
196 12 2 6.974882343492896 0.42314664826824383 3.357275241150932 
197 12 2 8.08979774314209 11.3594020368802 3.827188840902382 
198 12 2 8.796904524328639 10.652295255693652 3.827188840902382 
199 12 2 8.796904524328639 10.652295255693652 4.827188840902382 
200 12 2 8.296904524328639 11.152295255693652 5.53429562208893 
201 12 2 7.796904524328639 11.652295255693652 6.241402403275478 
202 13 2 7.628163825931085 1.2423388117467826 0.9609220627229186 
203 13 2 8.281445308369273 0.5890573293085942 0.5782386303578289 
204 13 2 8.552043358442372 0.3184592792354956 11.738731798381542 
205 13 2 8.552043358442372 11.478952447259207 0.03704253021163195 
206 13 2 7.771961561239562 11.62804701151536 0.9850970571077631 
207 13 2 8.42524304367775 10.974765529077173 0.6024136247426732 
208 13 2 7.9252430436777495 11.474765529077173 11.979679544091125 
209 13 2 7.271961561239562 0.043674310980361675 0.27799027592121545 
210 13 2 7.271961561239562 1.0436743109803617 0.2779902759212154 
211 14 2 7.628163825931085 1.7835349118929795 2.267485027599295 
212 14 2 7.628163825931085 1.0764281307064318 2.9745918087858425 
213 14 2 7.628163825931085 1.0764281307064316 1.9745918087858425 
214 14 2 7.628163825931085 2.0764281307064314 1.9745918087858425 
215 14 2 7.8562757436586255 1.6393511003674242 2.9607082479556226 
216 14 2 7.202994261220438 2.2926325828056124 3.343391680320712 
217 14 2 7.473592311293536 2.563230632878711 4.267271212831999 
218 14 2 6.549712778782249 2.5632306328787116 4.649954645197089 
219 14 2 7.202994261220438 3.2165121153169 4.267271212831999 
220 15 2 11.247694982557325 1.972254375139876 11.167642269611013 
221 15 2 10.594413500119137 1.3189728927016877 10.784958837245924 
222 15 2 10.594413500119137 2.026079673888235 10.077852056059376 
223 15 2 10.323815450046038 1.7554816238151367 11.001731588570662 
224 15 2 10.821320011567183 2.4963872841481995 10.284456387165541 
225 15 2 11.091918061640282 2.766985334221298 9.360576854654255 
226 15 2 11.091918061640282 3.1496687665863883 10.284456387165541 
227 15 2 10.384811280453734 3.8567755477729357 10.284456387165541 
228 15 2 9.731529798015545 4.510057030211124 9.901772954800451 
229 16 2 1.4957538511402801 6.238615866282427 7.446135412848238 
230 16 2 1.7663519012133786 6.509213916355526 8.370014945359525 
231 16 2 2.4196333836515667 7.162495398793714 7.987331512994436 
232 16 2 2.4196333836515667 8.086374931305 8.370014945359525 
233 16 2 2.0793554003525627 8.376457308344163 8.25728552774574 
234 16 2 2.0793554003525627 8.759140740709253 9.181165060257026 
235 16 2 2.0793554003525627 9.683020273220539 8.798481627891936 
236 16 2 2.0793554003525627 10.606899805731825 8.415798195526847 
237 16 2 2.0793554003525627 10.989583238096914 7.491918663015561 
238 17 2 9.967593489933257 8.786147071722988 9.692184083074428 
239 17 2 9.26048670874671 8.07904029053644 9.692184083074428 
240 17 2 8.98988865867361 7.808442240463342 8.768304550563142 
241 17 2 8.98988865867361 7.425758808098252 9.692184083074428 
242 17 2 9.1638494515105 6.514117124756503 9.413734900319964 
243 17 2 9.1638494515105 5.807010343569955 10.120841681506512 
244 17 2 9.1638494515105 5.807010343569955 11.120841681506512 
245 17 2 9.6638494515105 6.307010343569955 10.413734900319964 
246 17 2 9.3932514014374 6.577608393643053 11.33761443283125 
247 18 2 11.046786867380932 9.822796245012778 4.289184258592258 
248 18 2 11.046786867380932 9.440112812647689 3.3653047260809714 
249 18 2 11.700068349819121 8.7868313302095 3.747988158446061 
250 18 2 11.429470299746022 8.516233280136401 2.824108625934774 
251 18 2 11.54684759287165 7.459082711875636 3.2615570233686273 
252 18 2 11.54684759287165 8.166189493062184 3.9686638045551748 
253 18 2 11.81744564294475 8.436787543135283 3.044784272043888 
254 18 2 11.81744564294475 8.819470975500373 2.1209047395326013 
255 18 2 11.81744564294475 9.52657775668692 2.8280115207191487 
256 19 2 11.700068349819121 9.76897094626442 3.199394045040621 
257 19 2 11.046786867380932 9.11568946382623 3.5820774774057105 
258 19 2 11.046786867380932 8.73300603146114 4.505957009916997 
259 19 2 11.700068349819121 8.079724549022952 4.888640442282087 
260 19 2 11.852281928930372 7.345795326978651 3.969015639895055 
261 19 2 11.852281928930372 6.421915794467364 4.3516990722601445 
262 19 2 11.852281928930372 5.421915794467364 4.3516990722601445 
263 19 2 0.15059266076046285 5.421915794467364 3.4278195397488576 
264 19 2 11.234965361295462 5.421915794467364 3.4278195397488576 
265 20 2 2.1580592758082915 1.421381420881735 7.790182769596439 
266 20 2 2.1580592758082915 1.0386979885166452 6.866303237085152 
267 20 2 3.0819388083195784 1.0386979885166452 6.483619804720062 
268 20 2 2.5819388083195784 1.5386979885166454 7.19072658590661 
269 20 2 2.553405089600835 2.089119612840324 8.10479426394568 
270 20 2 1.5534050896008351 2.0891196128403244 8.10479426394568 
271 20 2 1.5534050896008353 3.0891196128403244 8.10479426394568 
272 20 2 1.824003139673934 3.3597176629134227 7.1809147314343935 
273 20 2 1.3240031396739342 3.8597176629134227 7.8880215126209405 
274 21 2 2.5945680069217403 0.984872689768286 8.714062302107726 
275 21 2 2.5945680069217403 0.060993157256999275 9.096745734472815 
276 21 2 2.0945680069217403 11.645365857791997 8.389638953286267 
277 21 2 1.5945680069217403 11.145365857791997 7.6825321720997195 
278 21 2 2.481779207517365 11.468167244152642 8.224714786763139 
279 21 2 3.1350606899555533 0.037076026055830824 7.842031354398048 
280 21 2 3.405658740028652 0.3076740761289294 8.765910886909335 
281 21 2 4.05894022246684 0.9609555585671176 8.383227454544246 
282 21 2 4.05894022246684 1.6680623397536651 7.6761206733576985 
283 22 2 11.07864181748377 2.0514417629510966 7.4247247979791675 
284 22 2 11.07864181748377 1.0514417629510966 7.4247247979791675 
285 22 2 10.425360335045582 0.3981602805129084 7.807408230344257 
286 22 2 9.772078852607393 11.82925149860972 8.190091662709348 
287 22 2 9.307612308772278 11.955858279800545 8.790332427316706 
288 22 2 9.307612308772278 0.25416901163063543 7.86645289480542 
289 22 2 9.307612308772278 1.1780485441419222 8.24913632717051 
290 22 2 8.383732776260992 1.1780485441419224 7.86645289480542 
291 22 2 7.459853243749706 1.1780485441419226 7.48376946244033 
292 23 2 10.371535036297223 2.2682145142758356 7.042041365614078 
293 23 2 10.371535036297223 2.6508979466409253 7.965920898125365 
294 23 2 10.371535036297223 3.5747774791522122 7.583237465760275 
295 23 2 10.100936986224124 3.3041794290791136 6.659357933248988 
296 23 2 11.02673730279791 3.3516823237424593 6.179806558746232 
297 23 2 11.29733535287101 3.622280373815558 7.103686091257519 
298 23 2 11.29733535287101 4.622280373815558 7.103686091257519 
299 23 2 12.004442134057557 5.329387155002105 7.103686091257519 
300 23 2 11.351160651619368 5.982668637440294 7.486369523622608 
301 24 2 4.1865889148183 5.07605562979552 2.4727014832815124 
302 24 2 4.457186964891398 4.805457579722422 1.5488219507702257 
303 24 2 4.1865889148183 4.5348595296493235 0.6249424182589389 
304 24 2 4.457186964891398 4.264261479576225 1.5488219507702257 
305 24 2 4.926088445101383 3.103598361758551 2.8071246976665227 
306 24 2 4.426088445101383 2.603598361758551 2.1000179164799753 
307 24 2 4.426088445101383 2.603598361758551 1.1000179164799753 
308 24 2 4.426088445101383 1.6797188292472645 0.7173344841148855 
309 24 2 5.079369927539572 2.3330003116854527 1.1000179164799753 
310 25 2 4.393695696004847 4.868948848608972 1.7655947020949647 
311 25 2 4.393695696004847 4.486265416243882 0.841715169583678 
312 25 2 3.8936956960048468 4.986265416243882 1.5488219507702254 
313 25 2 4.164293746077945 4.715667366170784 0.6249424182589387 
314 25 2 4.876519852605799 3.1582784770602212 0.5232511392180701 
315 25 2 4.876519852605799 3.1582784770602212 1.52325113921807 
316 25 2 5.376519852605799 2.6582784770602212 0.8161443580315225 
317 25 2 6.083626633792346 1.9511716958736736 0.8161443580315224 
318 25 2 6.083626633792346 2.3338551282387634 11.976637526055235 
319 26 2 0.5512035784762261 11.141939242059742 7.6656234573072215 
320 26 2 0.551203578476226 10.434832460873194 6.958516676120674 
321 26 2 0.5512035784762258 9.510952928361908 7.341200108485763 
322 26 2 0.5512035784762256 8.587073395850622 6.958516676120674 
323 26 2 1.1544528318495564 7.556734573077904 6.830656438868912 
324 26 2 1.8615596130361038 7.556734573077904 7.53776322005546 
325 26 2 1.3615596130361038 7.056734573077904 6.830656438868912 
326 26 2 1.3615596130361038 7.056734573077904 7.830656438868912 
327 26 2 2.0686663942226513 7.056734573077904 7.123549657682364 
328 27 2 11.910694144050607 1.959177914806677 0.9683901626916064 
329 27 2 11.910694144050607 1.0352983822953903 1.3510735950566963 
330 27 2 11.910694144050607 1.742405163481938 0.6439668138701489 
331 27 2 11.910694144050607 1.0352983822953905 1.3510735950566963 
332 27 2 11.555389960906975 1.2508367023080298 2.474437236092357 
333 27 2 11.555389960906975 0.3269571697967431 2.857120668457447 
334 27 2 11.284791910833876 0.5975552198698417 3.781000200968734 
335 27 2 11.991898692020424 1.3046620010563892 3.781000200968734 
336 27 2 0.6146327726719725 2.0117687822429366 3.781000200968734 
337 28 2 11.910694144050607 1.959177914806677 1.733757027421786 
338 28 2 0.47960292595379733 2.6124593972448653 2.116440459786876 
339 28 2 12.063975626488796 2.1124593972448653 2.8235472409734235 
340 28 2 0.47960292595379733 2.6124593972448653 3.530654022159971 
341 28 2 11.971858035292446 2.253914283663094 2.8692603507877705 
342 28 2 11.971858035292446 2.9610210648496413 3.576367131974318 
343 28 2 0.5407668171956355 3.6143025472878296 3.1936836996092284 
344 28 2 0.5407668171956357 4.61430254728783 3.1936836996092284 
345 28 2 0.5407668171956359 5.538182079799117 2.8110002672441388 
346 29 2 2.3615170030706536 6.376802948491003 6.56579180946478 
347 29 2 3.068623784257201 5.669696167304455 6.56579180946478 
348 29 2 3.068623784257201 4.745816634793168 6.948475241829869 
349 29 2 2.7980257341841024 4.47521858472007 6.024595709318582 
350 29 2 3.1386748320857967 3.4697098179130172 6.497778445065484 
351 29 2 3.409272882158895 3.1991117678399186 5.573898912554197 
352 29 2 3.1386748320857962 3.4697098179130172 4.65001938004291 
353 29 2 3.409272882158895 3.740307867986116 5.573898912554197 
354 29 2 2.4853933496476084 3.7403078679861164 5.956582344919287 
355 30 2 2.3615170030706536 6.452923415979716 6.18310837709969 
356 30 2 2.3615170030706536 5.529043883468429 5.8004249447346 
357 30 2 2.6321150531437523 5.258445833395331 6.724304477245887 
358 30 2 2.3615170030706536 4.987847783322232 5.8004249447346 
359 30 2 1.5407668171956357 3.84893568255765 5.149093362128521 
360 30 2 2.194048299633824 4.502217164995838 4.766409929763431 
361 30 2 1.5407668171956361 5.155498647434027 5.149093362128521 
362 30 2 1.0407668171956361 5.655498647434027 4.441986580941973 
363 30 2 1.0407668171956361 6.038182079799117 3.5181070484306862 
364 31 2 2.3615170030706536 6.376802948491003 6.56579180946478 
365 31 2 2.3615170030706536 5.452923415979716 6.18310837709969 
366 31 2 2.090918952997555 5.1823253659066175 7.106987909610977 
367 31 2 2.090918952997555 4.799641933541528 6.18310837709969 
368 31 2 1.0464576805066228 3.6809295757566236 4.610786934645584 
369 31 2 1.7535644616931703 3.6809295757566236 3.903680153459036 
370 31 2 1.7535644616931705 4.680929575756624 3.903680153459036 
371 31 2 1.7535644616931705 5.063613008121713 2.9798006209477492 
372 31 2 1.7535644616931707 5.987492540633 2.5971171885826596 
373 32 2 0.8521777261788093 0.7864136428682462 8.758708995661662 
374 32 2 1.3521777261788093 0.2864136428682461 8.051602214475114 
375 32 2 2.0054592086169976 11.717504860965057 7.668918782110024 
376 32 2 2.0054592086169976 11.01039807977851 6.9618120009234765 
377 32 2 2.2557674261982013 11.16474525511713 5.940518408817285 
378 32 2 2.2557674261982013 11.871852036303677 5.233411627630737 
379 32 2 2.2557674261982013 0.7113588682799648 5.616095059995827 
380 32 2 2.2557674261982013 1.6352384007912515 5.998778492360916 
381 32 2 2.7557674261982013 2.1352384007912515 6.705885273547463 
382 33 2 0.21852275233966342 9.240841260125654 9.698150069779702 
383 33 2 0.21852275233966334 8.858157827760564 8.774270537268416 
384 33 2 0.7185227523396632 8.358157827760564 9.481377318454964 
385 33 2 0.06524126990147483 7.7048763453223765 9.864060750820054 
386 33 2 0.09610869586279236 6.455770802234747 10.141956804386082 
387 33 2 1.0961086958627924 6.455770802234747 10.141956804386082 
388 33 2 0.4428272134246044 7.109052284672936 10.524640236751171 
389 33 2 0.713425263497703 7.379650334746034 9.600760704239885 
390 33 2 0.4428272134246045 7.6502483848191325 10.524640236751171 
391 34 2 5.232651409977761 2.486281794123641 1.4244412653014331 
392 34 2 5.232651409977761 2.1035983617585514 2.34832079781272 
393 34 2 4.732651409977761 1.6035983617585514 1.6412140166261726 
394 34 2 4.079369927539573 2.2568798441967397 1.258530584261083 
395 34 2 4.259514230268325 2.08938578475395 2.8016862504507922 
396 34 2 3.3356346977570377 2.0893857847539503 3.184369682815882 
397 34 2 2.411755165245751 2.0893857847539508 3.5670531151809715 
398 34 2 1.9117551652457512 1.5893857847539505 2.859946333994424 
399 34 2 2.18235321531885 1.859983834827049 1.9360668014831375 
400 35 2 6.736908116230534 2.6044531783118616 0.6576316902504152 
401 35 2 6.736908116230534 1.680573645800575 1.040315122615505 
402 35 2 7.390189598668722 1.0272921633623864 0.6576316902504152 
403 35 2 7.390189598668722 0.02729216336238638 0.6576316902504153 
404 35 2 6.617868895055081 11.387754613493314 0.8734340680274152 
405 35 2 6.617868895055081 10.680647832306766 0.16632728684086762 
406 35 2 6.617868895055081 10.297964399941677 1.0902068193521544 
407 35 2 7.27115037749327 10.951245882379865 1.4728902517172442 
408 35 2 7.924431859931459 11.604527364818054 1.0902068193521544 
409 36 2 9.552577764890604 6.701606213014656 0.9012579997793259 
410 36 2 8.845470983704056 6.701606213014656 0.1941512185927784 
411 36 2 8.845470983704056 6.701606213014656 1.1941512185927783 
412 36 2 8.462787551338966 6.701606213014656 2.1180307511040652 
413 36 2 7.870181615714802 7.6960169491812795 0.9206055956490614 
414 36 2 7.599583565641704 7.966614999254378 12.081098763672774 
415 36 2 7.599583565641704 8.890494531765665 11.698415331307684 
416 36 2 6.946302083203516 9.543776014203853 12.081098763672774 
417 36 2 6.446302083203516 10.043776014203853 0.703832844324322 
418 37 2 9.552577764890604 5.070619899316821 0.5768346509578681 
419 37 2 9.823175814963703 4.8000218492437225 1.5007141834691549 
420 37 2 9.823175814963703 4.092915068057175 2.2078209646557023 
421 37 2 10.53028259615025 3.3858082868706267 2.2078209646557023 
422 37 2 10.464367311222363 2.944210963207718 1.503940007237571 
423 37 2 10.964367311222363 3.444210963207718 2.2110467884241185 
424 37 2 11.464367311222363 3.944210963207718 1.503940007237571 
425 37 2 10.964367311222363 4.444210963207718 2.2110467884241185 
426 37 2 11.234965361295462 4.714809013280816 3.134926320935405 
427 38 2 6.155771835050555 10.74340178559271 2.620107667710454 
428 38 2 6.155771835050555 10.36071835322762 3.543987200221741 
429 38 2 6.862878616237102 9.653611572041072 3.543987200221741 
430 38 2 6.862878616237102 8.729732039529786 3.1613037678566513 
431 38 2 6.450942299865885 9.686493215121214 3.6128236889048058 
432 38 2 6.721540349938984 9.957091265194313 2.688944156393519 
433 38 2 6.721540349938984 10.339774697559402 3.6128236889048058 
434 38 2 6.992138400012082 10.610372747632502 4.536703221416093 
435 38 2 6.992138400012082 11.534252280143788 4.154019789051003 
436 39 2 6.155771835050555 11.284597885738906 3.1613037678566513 
437 39 2 6.155771835050555 10.577491104552358 2.454196986670104 
438 39 2 5.655771835050555 10.077491104552358 3.1613037678566513 
439 39 2 5.155771835050555 9.577491104552358 2.454196986670104 
440 39 2 4.288632568519773 8.984641361342375 2.3622655924351594 
441 39 2 4.288632568519773 8.060761828831088 1.9795821600700698 
442 39 2 3.288632568519773 8.060761828831088 1.9795821600700698 
443 39 2 3.288632568519773 8.984641361342375 2.3622655924351594 
444 39 2 3.5592306185928715 9.255239411415474 3.2861451249464464 
445 40 2 2.7557674261982013 3.5494519631643464 5.291671711174368 
446 40 2 1.8318878936869145 3.5494519631643464 5.674355143539458 
447 40 2 1.124781112500367 4.256558744350894 5.674355143539458 
448 40 2 2.048660645011654 4.256558744350894 5.291671711174368 
449 40 2 1.5354402162906575 5.032280854345138 4.8018778265347715 
450 40 2 1.5354402162906577 5.956160386856425 5.184561258899861 
451 40 2 1.8060382663637564 6.226758436929523 4.260681726388574 
452 40 2 1.3060382663637566 6.726758436929523 4.967788507575122 
453 40 2 1.0354402162906582 6.997356487002621 4.043908975063835 
454 41 2 8.787973038131584 9.83188865872271 0.8914324777528518 
455 41 2 8.134691555693395 9.17860717628452 0.5087490453877621 
456 41 2 7.864093505620297 8.908009126211422 1.4326285778990488 
457 41 2 7.864093505620297 7.908009126211422 1.4326285778990488 
458 41 2 7.645067963363772 6.9353734244468725 1.1369470325063606 
459 41 2 7.645067963363772 7.6424802056334205 1.844053813692908 
460 41 2 6.991786480925583 6.989198723195232 1.4613703813278183 
461 41 2 6.721188430852485 7.25979677326833 0.5374908488165314 