20241016B1C1

1443 atoms
1490 bonds
                   
3 atom types
1 bond types

0 12.084372700534999 xlo xhi
0 12.084372700534999 ylo yhi
0 12.084372700534999 zlo zhi

Masses

1 1
2 1
3 1

Atoms # full

1 1 1 7.900324979878825 10.571933066744563 5.483865594524117 
2 1 1 2.4914756070594994 7.368174430990455 2.1883449105574027 
3 1 1 4.568462466138446 9.79637943496262 10.232666393095583 
4 1 1 3.4317099256399133 5.141645523003177 8.689211927613705 
5 1 1 7.628163825931085 2.1662183442580694 1.3436054950880083 
6 1 1 10.747694982557325 2.472254375139876 10.460535488424465 
7 1 1 0.5718743186289933 6.238615866282427 7.828818845213328 
8 1 1 9.967593489933257 9.168830504088078 10.616063615585714 
9 1 1 5.814388903732802 0.6476077031757732 0.4734067683141737 
10 1 1 11.700068349819121 10.476077727450967 3.9065008262271683 
11 1 1 0.9332750404509873 7.89186725979035 2.8010298593286445 
12 1 1 11.1696128402798 2.7664885538955715 11.137917710422634 
13 1 1 11.541555098837163 9.717165553459248 7.6004261852530535 
14 1 1 1.887461225735193 1.6919794709548337 8.714062302107726 
15 1 1 11.07864181748377 2.975321295462383 7.042041365614078 
16 1 1 3.6865889148182998 5.57605562979552 1.7655947020949647 
17 1 1 0.05120357847622621 11.641939242059742 6.958516676120674 
18 1 1 0.47960292595379744 2.6124593972448653 1.351073595056696 
19 1 1 2.3615170030706536 7.376802948491003 6.56579180946478 
20 1 1 0.198896243740621 0.1331321604300579 9.141392428026752 
21 1 1 0.21852275233966356 9.947948041312202 10.40525685096625 
22 1 1 5.732651409977761 2.986281794123641 0.7173344841148855 
23 1 1 6.083626633792346 3.25773466075005 0.2749482578853254 
24 1 1 9.552577764890604 5.994499431828108 0.1941512185927783 
25 1 1 6.155771835050555 11.667281318103996 2.2374242353453644 
26 1 1 2.7557674261982013 2.842345181977799 5.998778492360915 
27 1 1 9.441254520569773 10.485170141160898 1.2741159101179416 
28 1 1 0.5407668171956361 6.538182079799117 2.8110002672441388 
29 1 1 8.296904524328639 0.06792255515865252 5.53429562208893 
30 1 1 10.474120163062688 0.1902861837522126 4.516781332957267 
31 1 1 1.7425469974772059 7.704463268189168 4.043908975063835 
32 1 1 2.7877731706492783 0.835816235688029 4.866008850588264 
33 1 1 2.732636882790751 11.642864720535103 7.109235230650471 
34 1 1 4.213257192347301 8.904545357138607 11.867705124525967 
35 1 1 11.81744564294475 9.90926118905201 1.904131988207862 
36 1 1 6.202994261220438 3.2165121153169003 4.267271212831999 
37 1 1 7.777008193311337 9.538146526586567 4.638841329021516 
38 1 1 3.19528140344478 9.384122759643134 3.7850619490546835 
39 1 1 11.351160651619368 6.689775418626842 8.193476304809156 
40 1 1 6.446302083203516 10.750882795390401 1.4109396255108695 
41 1 1 0.7936850505653046 6.670411583003857 7.357536809622633 
42 1 1 9.040815072352354 9.019807979916427 5.575571317032164 
43 1 1 2.4853933496476084 4.664187400497403 5.573898912554197 
44 1 1 11.418276370296534 0.2117741323096287 0.4165705195171044 
45 1 1 5.731736460176459 3.476387797146458 11.438074490317511 
46 1 1 11.234965361295462 5.421915794467364 2.4278195397488576 
47 1 1 7.571939541146206 10.26908857100441 3.512127354657571 
48 1 1 1.9705868298007574 7.357585017265403 11.603531089105843 
49 1 1 0.7219461204531498 9.278331501662121 5.834516139538392 
50 1 1 7.5188454699683644 5.057247475323135 5.6600919412905375 
51 1 1 11.877482082797426 11.070407460855078 2.1114088886321607 
52 1 1 10.901204520137496 9.153976876676087 5.817726883377009 
53 1 1 0.9403820927419194 6.295491011029629 11.620431169089619 
54 1 1 0.7451121234400239 10.752928322713839 8.633706343633813 
55 1 1 7.367349099681256 1.0366440072144367 8.105254018718409 
56 1 1 4.05894022246684 2.668062339753665 7.6761206733576985 
57 1 1 8.042527073173684 8.345876069396473 6.895023170357947 
58 1 1 9.231529798015545 5.010057030211124 9.194666173613903 
59 1 1 0.0761726136322323 2.3988382029695887 5.004353599231748 
60 1 1 0.125302483029716 1.5904148491746546 5.57010194435023 
61 1 1 8.597831519548803 7.04967105493566 3.2373575291837597 
62 1 1 7.321210947810442 1.8891451970660755 4.2202902882568205 
63 1 1 7.271150377493271 0.1734361467212428 0.7075233869870646 
64 1 1 1.4203241184638316 7.079080094043678 1.9714305334361706 
65 1 1 3.5995499969649596 3.723058025689883 5.97357892674306 
66 1 1 7.99165914483855 10.14173864050264 6.6088054189330805 
67 1 1 8.040646192525942 7.429612813278101 0.9867168133064179 
68 1 1 10.282126355681537 2.223389154131534 9.036521793705147 
69 1 1 6.221188430852485 8.683676305779617 0.21306749999507357 
70 1 1 9.368524433619273 4.521233238369404 0.39112452663595476 
71 1 1 0.8240031396739343 4.359717662913423 7.180914731434393 
72 1 1 11.883817589141195 4.992196297766834 7.537867599822357 
73 1 1 6.552838859462166 7.444495977605872 8.72261638318212 
74 1 1 3.5592306185928715 10.255239411415474 3.2861451249464464 
75 1 1 6.565413197503579 11.534471906081363 7.445978796514289 
76 1 1 5.702740702545386 10.465587086703502 8.761921568637092 
77 1 1 6.992138400012082 11.916935712508877 5.07789932156229 
78 1 1 11.417039301133896 0.7838742561018175 4.683220070787104 
79 1 1 5.378868310233744 9.9715203268054 1.5758065216521102 
80 1 1 9.630272416839254 2.534997332039238 3.2617408452288643 
81 1 1 1.4752464341323022 1.1528770536405013 1.9360668014831375 
82 1 1 1.4829664116200723 6.258090590706098 1.6732376560713726 
83 1 1 11.217355412834376 1.7923398726372046 7.93697871732576 
84 1 1 6.0686312619170755 6.065114528493578 12.053836481902344 
85 1 1 8.96145208161136 4.28676705540824 9.928239098736464 
86 1 1 3.031281200638842 9.768021132754058 9.487443930226638 
87 1 1 9.8932514014374 7.077608393643053 10.630507651644702 
88 1 1 10.245010937947027 5.4848852798067815 7.265455752722595 
89 1 1 6.7638968950170435 6.5303857799399285 5.284972291551776 
90 1 1 1.677904152727069 4.585898542758056 2.1694713152893574 
91 1 1 2.0686663942226513 8.056734573077904 7.123549657682364 
92 1 1 10.921883060448504 5.1487135918686935 2.3194040230806876 
93 1 1 1.7107391556409048 8.620499699690722 7.535585597957384 
94 1 1 8.30999510787521 11.010422672248174 9.027089643927193 
95 1 1 10.099678111309625 2.2770209112085804 5.290812631600278 
96 1 1 6.459853243749706 1.1780485441419228 7.48376946244033 
97 1 1 7.3013804077734195 9.725188887073259 10.645217650758921 
98 1 1 7.54255961131266 1.3142723610534603 1.2018698084325021 
99 1 1 0.11463277267197264 2.5117687822429366 3.0738934197821863 
100 1 3 4.179994737056344 10.261752138890982 11.707801256797932 
101 1 3 1.1499339946111522 8.35735516600568 10.524640236751171 
102 1 3 8.866808625950519 9.643818792661031 9.41917502612096 
103 2 2 7.247043497440636 9.918651584306375 5.866549026889206 
104 2 2 6.593762015002447 9.265370101868186 6.249232459254296 
105 2 2 6.593762015002447 8.3414905693569 6.631915891619386 
106 2 2 5.886655233815899 7.634383788170352 6.631915891619386 
107 2 2 5.4121317150653905 8.291400210091536 7.553629394011009 
108 2 2 5.9121317150653905 8.791400210091536 6.846522612824461 
109 2 2 6.565413197503579 9.444681692529725 7.22920604518955 
110 2 2 6.565413197503579 9.827365124894815 8.153085577700837 
111 2 2 6.565413197503579 10.827365124894815 8.153085577700837 
112 3 2 7.193218198692277 9.864826285558015 5.483865594524117 
113 3 2 7.193218198692277 9.157719504371467 4.776758813337569 
114 3 2 7.193218198692277 8.45061272318492 4.069652032151021 
115 3 2 7.846499681130465 7.797331240746731 3.6869685997859314 
116 3 2 7.693927674964131 7.08289429571629 2.7836138080446027 
117 3 2 8.40103445615068 7.790001076902838 2.7836138080446027 
118 3 2 7.693927674964131 7.08289429571629 2.7836138080446027 
119 3 2 8.193927674964131 7.58289429571629 2.076507026858055 
120 3 2 8.693927674964131 8.08289429571629 1.3694002456715078 
121 4 2 3.1447570894976877 6.714892948552266 2.5710283429224923 
122 4 2 3.6447570894976877 6.214892948552266 3.2781351241090397 
123 4 2 3.2620736571325977 6.214892948552266 2.354255591597753 
124 4 2 3.2620736571325977 6.921999729738814 3.0613623727843007 
125 4 2 2.698842354968135 7.85365504764454 2.961721776124989 
126 4 2 3.352123837406323 8.506936530082728 2.5790383437598994 
127 4 2 3.622721887479422 8.777534580155827 3.502917876271186 
128 4 2 3.122721887479422 9.277534580155827 4.210024657457733 
129 4 2 2.8521238374063236 9.548132630228926 3.2861451249464464 
130 5 2 1.8381941246213112 6.714892948552267 1.805661478192313 
131 5 2 1.3381941246213112 6.214892948552267 2.5127682593788605 
132 5 2 1.6087921746944096 5.944294898479169 1.5888887268675738 
133 5 2 1.1087921746944094 5.444294898479169 2.2959955080541214 
134 5 2 2.0768905527509833 4.79284208497106 1.877150326817358 
135 5 2 2.0768905527509833 5.499948866157608 1.1700435456308103 
136 5 2 1.3697837715644359 6.207055647344156 1.1700435456308103 
137 5 2 0.6626769903778885 6.9141624285307035 1.1700435456308103 
138 5 2 0.6626769903778886 7.621269209717251 1.8771503268173577 
139 6 2 3.8613556849518984 9.089272653776073 10.232666393095583 
140 6 2 3.20807420251371 8.435991171337884 10.615349825460672 
141 6 2 2.5009674213271627 7.728884390151336 10.615349825460672 
142 6 2 2.5009674213271627 6.805004857640049 10.998033257825762 
143 6 2 2.206857851817383 6.713155286544936 10.353063379194293 
144 6 2 2.706857851817383 7.213155286544936 9.645956598007745 
145 6 2 2.0535763693791953 7.8664367689831245 10.028640030372834 
146 6 2 2.760683150565743 8.573543550169672 10.028640030372834 
147 6 2 3.031281200638842 8.844141600242772 9.104760497861548 
148 7 2 3.915180983700258 9.143097952524432 9.849982960730493 
149 7 2 3.415180983700258 8.643097952524432 10.557089741917041 
150 7 2 3.1445829336271593 8.372499902451333 9.633210209405755 
151 7 2 2.4374761524406114 7.665393121264785 9.633210209405755 
152 7 2 2.241184879873856 6.379880186005757 10.972544775408009 
153 7 2 2.241184879873856 6.379880186005757 9.972544775408009 
154 7 2 2.9482916610604035 5.672773404819209 9.972544775408009 
155 7 2 2.9482916610604035 6.379880186005757 10.679651556594557 
156 7 2 2.241184879873856 7.0869869671923045 10.679651556594557 
157 8 2 4.568462466138446 9.089272653776073 9.525559611909035 
158 8 2 5.275569247324993 8.382165872589525 9.525559611909035 
159 8 2 5.275569247324993 7.675059091402977 10.232666393095583 
160 8 2 5.928850729763181 7.021777608964788 10.615349825460672 
161 8 2 5.670155427097076 6.096736912583298 9.588235832149774 
162 8 2 6.052838859462166 6.096736912583298 8.664356299638488 
163 8 2 6.052838859462166 5.096736912583298 8.664356299638488 
164 8 2 6.552838859462166 5.596736912583298 7.95724951845194 
165 8 2 6.552838859462166 6.520616445094585 8.33993295081703 
166 9 2 3.1611118755668146 4.871047472930079 9.613091460124991 
167 9 2 3.868218656753362 4.163940691743531 9.613091460124991 
168 9 2 3.868218656753362 3.781257259378441 8.689211927613705 
169 9 2 3.868218656753362 2.781257259378441 8.689211927613705 
170 9 2 3.4853933496476084 2.816428335474829 7.645828742160753 
171 9 2 4.138674832085797 3.4697098179130172 7.2631453097956635 
172 9 2 3.1386748320857967 3.4697098179130177 7.2631453097956635 
173 9 2 2.2147952995745097 3.469709817913018 6.880461877430574 
174 9 2 2.4853933496476084 3.7403078679861164 5.956582344919287 
175 10 2 3.4317099256399133 4.434538741816629 9.396318708800253 
176 10 2 4.138816706826461 3.7274319606300814 9.396318708800253 
177 10 2 5.062696239337748 3.727431960630081 9.779002141165343 
178 10 2 5.769803020524295 3.0203251794435335 9.779002141165343 
179 10 2 6.767701374979737 2.1159995335217223 10.189771608984767 
180 10 2 6.114419892541548 1.462718051083534 10.572455041349857 
181 10 2 5.731736460176458 1.462718051083534 11.496334573861143 
182 10 2 6.385017942614647 2.1159995335217223 11.113651141496053 
183 10 2 6.385017942614647 2.82310631470827 11.820757922682601 
184 11 2 3.702307975713012 4.871047472930079 9.613091460124991 
185 11 2 3.702307975713012 4.488364040564989 8.689211927613705 
186 11 2 3.0490264932748237 3.835082558126801 8.306528495248616 
187 11 2 3.3196245433479223 3.5644845080537024 7.382648962737329 
188 11 2 3.909048908636389 3.0717471319046994 6.598234676050745 
189 11 2 2.909048908636389 3.0717471319047 6.598234676050745 
190 11 2 2.909048908636389 2.0717471319047 6.598234676050745 
191 11 2 3.1796469587094878 2.3423451819777985 5.674355143539458 
192 11 2 3.6796469587094878 2.8423451819777985 6.381461924726005 
193 12 2 8.335270607117632 1.4591115630715217 1.3436054950880083 
194 12 2 9.04237738830418 1.4591115630715215 2.050712276274556 
195 12 2 9.749484169490728 1.4591115630715212 2.7578190574611035 
196 12 2 9.749484169490728 0.45911156307152123 2.7578190574611035 
197 12 2 10.157292787953375 11.381697205620553 3.120082059715834 
198 12 2 9.774609355588286 11.381697205620553 4.043961592227121 
199 12 2 9.504011305515187 11.652295255693652 3.120082059715834 
200 12 2 9.504011305515187 11.652295255693652 4.120082059715834 
201 12 2 8.796904524328639 11.652295255693652 4.827188840902382 
202 13 2 7.628163825931085 1.1662183442580694 1.3436054950880083 
203 13 2 8.281445308369273 0.512936861819881 0.9609220627229186 
204 13 2 8.552043358442372 0.2423388117467824 1.8848015952342054 
205 13 2 8.552043358442372 11.402831979770495 1.5021181628691158 
206 13 2 8.520264442572305 11.038256797963722 0.4365029437023228 
207 13 2 7.813157661385757 11.038256797963724 11.813768863050774 
208 13 2 7.813157661385757 11.74536357915027 0.4365029437023227 
209 13 2 8.466439143823946 0.3142723610534601 0.8191863760674124 
210 13 2 7.54255961131266 0.31427236105346035 1.2018698084325021 
211 14 2 7.357565775857987 1.895620294184971 2.267485027599295 
212 14 2 7.357565775857987 1.512936861819881 3.191364560110582 
213 14 2 8.281445308369273 1.5129368618198809 3.5740479924756716 
214 14 2 7.574338527182725 0.8058300806333334 3.5740479924756716 
215 14 2 7.397471843804823 1.0220345327325144 3.3433916803207127 
216 14 2 7.897471843804823 1.5220345327325144 2.636284899134165 
217 14 2 7.897471843804823 2.445914065243801 2.2536014667690756 
218 14 2 7.626873793731725 2.7165121153169 3.177480999280362 
219 14 2 6.702994261220438 2.7165121153169003 3.5601644316454517 
220 15 2 10.477096932484226 2.2016563250667773 9.53665595591318 
221 15 2 10.477096932484226 1.4945495438802299 8.829549174726631 
222 15 2 10.477096932484226 0.5706700113689431 8.446865742361542 
223 15 2 10.477096932484226 0.953353443734033 9.370745274872828 
224 15 2 9.948302549340283 2.0958434678380287 9.577349605978993 
225 15 2 9.448302549340283 2.5958434678380287 10.284456387165541 
226 15 2 8.524423016828997 2.595843467838029 9.901772954800451 
227 15 2 9.231529798015545 3.3029502490245766 9.901772954800451 
228 15 2 9.231529798015545 4.010057030211124 9.194666173613903 
229 16 2 0.954557750994083 6.238615866282427 8.752698377724615 
230 16 2 0.9545577509940831 7.238615866282427 8.752698377724615 
231 16 2 0.954557750994083 7.238615866282427 7.752698377724615 
232 16 2 1.8784372835053698 7.238615866282427 7.370014945359525 
233 16 2 2.232636882790751 8.205315441960892 6.7265517982853815 
234 16 2 2.232636882790751 8.91242222314744 7.433658579471929 
235 16 2 1.5793554003525627 9.565703705585628 7.05097514710684 
236 16 2 2.0793554003525627 10.065703705585628 6.343868365920292 
237 16 2 2.0793554003525627 10.989583238096914 6.7265517982853815 
238 17 2 9.467593489933257 8.668830504088078 9.908956834399167 
239 17 2 9.467593489933257 9.592710036599364 9.526273402034077 
240 17 2 8.814312007495069 8.939428554161175 9.143589969668987 
241 17 2 8.814312007495069 8.939428554161175 10.143589969668987 
242 17 2 8.469371868926112 8.577608393643054 8.999521337946868 
243 17 2 8.469371868926112 7.577608393643054 8.999521337946868 
244 17 2 8.969371868926112 7.077608393643054 9.706628119133416 
245 17 2 8.969371868926112 6.153728861131767 9.323944686768327 
246 17 2 9.239969918999211 6.424326911204865 10.247824219279613 
247 18 2 10.992961568632573 9.76897094626442 3.9065008262271683 
248 18 2 11.646243051070762 9.11568946382623 4.289184258592258 
249 18 2 0.26897713172231086 8.408582682639683 4.289184258592258 
250 18 2 11.85334983225731 7.908582682639683 3.582077477405711 
251 18 2 0.49400502234465726 7.300570044094529 3.369207620865346 
252 18 2 0.7646030724177564 7.571168094167628 2.445328088354059 
253 18 2 1.4178845548559451 8.224449576605815 2.8280115207191487 
254 18 2 0.7107777736693972 8.931556357792363 2.8280115207191487 
255 18 2 0.4401797235962981 9.202154407865462 1.904131988207862 
256 19 2 11.700068349819121 9.552198194939681 4.289184258592258 
257 19 2 11.700068349819121 8.628318662428395 4.671867690957348 
258 19 2 11.700068349819121 8.245635230063305 3.747988158446061 
259 19 2 11.700068349819121 7.245635230063305 3.747988158446061 
260 19 2 0.3038741431986516 6.192513844540462 3.9002931856655843 
261 19 2 11.88824684373365 5.692513844540462 3.193186404479037 
262 19 2 11.88824684373365 4.768634312029175 2.810502972113947 
263 19 2 11.88824684373365 4.768634312029175 1.8105029721139472 
264 19 2 11.88824684373365 4.768634312029175 2.810502972113947 
265 20 2 2.1580592758082915 1.421381420881735 7.790182769596439 
266 20 2 1.4509524946217438 0.7142746396951876 7.790182769596439 
267 20 2 1.4509524946217438 1.7142746396951876 7.790182769596439 
268 20 2 1.4509524946217438 1.7142746396951876 8.790182769596438 
269 20 2 1.0946011897470322 2.2413605478177505 9.187186464238073 
270 20 2 1.7478826721852208 2.894642030255939 9.569869896603162 
271 20 2 1.4772846221121223 3.1652400803290375 8.645990364091876 
272 20 2 0.8240031396739342 3.8185215627672258 9.028673796456966 
273 20 2 0.5534050896008358 4.089119612840324 8.10479426394568 
274 21 2 1.6168631756620944 1.421381420881735 7.790182769596439 
275 21 2 2.2701446581002824 0.7680999384435466 7.407499337231349 
276 21 2 2.7701446581002824 0.2680999384435465 8.114606118417896 
277 21 2 3.152828090465372 0.2680999384435464 9.038485650929182 
278 21 2 3.405658740028652 11.792590592974099 8.365367070599165 
279 21 2 3.405658740028652 0.09090132480419003 7.441487538087879 
280 21 2 3.405658740028652 0.09090132480419011 8.441487538087879 
281 21 2 3.405658740028652 1.0147808573154768 8.058804105722789 
282 21 2 4.05894022246684 1.6680623397536651 7.6761206733576985 
283 22 2 10.808043767410672 2.7047232453892844 6.118161833102791 
284 22 2 10.537445717337572 2.434125195316186 7.042041365614078 
285 22 2 10.266847667264473 2.163527145243088 7.965920898125365 
286 22 2 10.266847667264473 1.7808437128779981 8.889800430636651 
287 22 2 8.578210358845379 0.9074504940688238 9.938382724411975 
288 22 2 8.578210358845379 12.067943662092537 9.555699292046885 
289 22 2 8.578210358845379 0.9074504940688238 9.173015859681795 
290 22 2 8.30761230877228 1.1780485441419224 8.24913632717051 
291 22 2 7.383732776260993 1.1780485441419226 7.86645289480542 
292 23 2 11.07864181748377 2.2682145142758356 7.749148146800626 
293 23 2 11.07864181748377 3.1920940467871226 7.366464714435536 
294 23 2 11.07864181748377 3.1920940467871226 6.366464714435536 
295 23 2 11.73192329992196 3.845375529225311 5.983781282070447 
296 23 2 11.08056260154627 4.495297836042457 6.345717239786582 
297 23 2 11.351160651619368 4.765895886115556 7.269596772297869 
298 23 2 11.621758701692467 5.036493936188654 6.345717239786582 
299 23 2 11.621758701692467 6.036493936188654 6.345717239786582 
300 23 2 11.621758701692467 6.419177368553743 7.269596772297869 
301 24 2 3.6865889148182998 4.652176097284233 2.1482781344600546 
302 24 2 3.6865889148182998 4.269492664919143 1.2243986019487678 
303 24 2 3.415990864745201 3.998894614846045 2.1482781344600546 
304 24 2 3.415990864745201 3.616211182480955 1.2243986019487678 
305 24 2 4.101665096279925 2.769509042798902 0.7173344841148859 
306 24 2 3.448383613841737 2.1162275603607137 0.334651051749796 
307 24 2 4.372263146353024 2.1162275603607137 12.036340319919706 
308 24 2 5.079369927539572 1.4091207791741662 12.036340319919706 
309 24 2 5.732651409977761 2.0624022616123545 0.3346510517497958 
310 25 2 3.6865889148182998 4.652176097284233 1.3829112697298749 
311 25 2 3.6865889148182998 3.9450693160976855 0.6758044885433274 
312 25 2 4.6865889148183 3.945069316097685 0.6758044885433275 
313 25 2 4.6865889148183 3.2379625349111376 1.382911269729875 
314 25 2 4.235867568769773 1.9333113119285927 1.2570878739402445 
315 25 2 4.506465618842872 2.203909362001691 0.33320834142895767 
316 25 2 5.159747101281059 1.5506278795635027 12.034897609598866 
317 25 2 6.083626633792346 1.5506278795635025 11.652214177233777 
318 25 2 6.083626633792346 2.25773466075005 0.27494825788532545 
319 26 2 0.7583103596627736 10.934832460873194 6.958516676120674 
320 26 2 1.2583103596627736 10.434832460873194 6.251409894934126 
321 26 2 1.528908409735872 10.164234410800095 7.175289427445413 
322 26 2 2.028908409735872 9.664234410800095 6.468182646258866 
323 26 2 3.0463712254822974 8.633895588027379 6.682606141773643 
324 26 2 3.6996527079204857 7.980614105589191 7.065289574138733 
325 26 2 2.9925459267339383 7.980614105589191 6.358182792952185 
326 26 2 2.9925459267339383 7.056734573077904 6.740866225317275 
327 26 2 2.0686663942226513 7.056734573077904 7.123549657682364 
328 27 2 11.856868845302248 1.9053526160583178 1.351073595056696 
329 27 2 0.27249614476724965 1.4053526160583178 2.058180376243244 
330 27 2 0.2724961447672496 1.022669183693228 2.9820599087545308 
331 27 2 1.1963756772785363 1.0226691836932278 3.3647433411196204 
332 27 2 2.2456190863698064 0.5975552198698407 3.0423632897741815 
333 27 2 2.2456190863698064 0.5975552198698407 2.0423632897741815 
334 27 2 1.7456190863698067 1.0975552198698408 2.749470070960729 
335 27 2 1.745619086369807 1.8046620010563885 3.4565768521472764 
336 27 2 1.0385123051832594 2.511768782242936 3.4565768521472764 
337 28 2 0.20900487588069883 2.3418613471717666 0.42719406254540937 
338 28 2 0.4796029259537973 2.071263297098668 1.351073595056696 
339 28 2 0.47960292595379733 2.9951428296099545 1.733757027421786 
340 28 2 1.403482458465084 2.9951428296099545 2.116440459786876 
341 28 2 0.7701687671225368 2.8437044972147314 2.6450895862037886 
342 28 2 0.770168767122537 3.7675840297260184 3.0277730185688783 
343 28 2 0.7701687671225372 4.767584029726018 3.0277730185688783 
344 28 2 0.27016876712253735 5.267584029726018 3.7348797997554257 
345 28 2 0.5407668171956359 5.538182079799117 2.8110002672441388 
346 29 2 2.3615170030706536 6.452923415979716 6.948475241829869 
347 29 2 2.8615170030706536 5.952923415979716 7.655582023016417 
348 29 2 2.590918952997555 5.6823253659066175 6.73170249050513 
349 29 2 1.8838121718110072 4.97521858472007 6.73170249050513 
350 29 2 2.431568050899249 4.0109059180592155 5.898322261375656 
351 29 2 3.1386748320857967 3.3037991368726676 5.898322261375656 
352 29 2 3.1386748320857967 3.3037991368726676 4.898322261375656 
353 29 2 3.1386748320857967 3.3037991368726676 5.898322261375656 
354 29 2 2.4853933496476084 3.957080619310856 6.281005693740745 
355 30 2 2.3615170030706536 6.452923415979716 6.18310837709969 
356 30 2 1.654410221884106 5.745816634793169 6.18310837709969 
357 30 2 1.3838121718110072 5.4752185847200705 5.259228844588403 
358 30 2 1.383812171811007 4.5513390522087835 4.876545412223313 
359 30 2 1.311364867268734 4.078337632484552 5.365866113453261 
360 30 2 0.811364867268734 4.578337632484552 4.658759332266713 
361 30 2 0.5407668171956356 4.84893568255765 3.7348797997554257 
362 30 2 1.194048299633824 5.502217164995838 4.117563232120515 
363 30 2 0.540766817195636 6.155498647434027 3.7348797997554257 
364 31 2 2.3615170030706536 6.376802948491003 6.56579180946478 
365 31 2 2.3615170030706536 5.994119516125913 5.641912276953493 
366 31 2 2.8615170030706536 5.494119516125913 4.934805495766945 
367 31 2 2.8615170030706536 4.787012734939365 4.227698714580397 
368 31 2 2.6900731928066195 4.127104277008264 3.3042239697692066 
369 31 2 2.960671242879718 4.397702327081363 2.38034443725792 
370 31 2 2.960671242879718 4.780385759446452 1.4564649047466334 
371 31 2 2.6900731928066195 5.0509838095195505 2.38034443725792 
372 31 2 1.982966411620072 5.758090590706098 2.38034443725792 
373 32 2 0.19889624374062106 1.0570116929413447 8.758708995661662 
374 32 2 0.698896243740621 0.5570116929413446 9.46581577684821 
375 32 2 0.19889624374062087 0.05701169294134456 8.758708995661662 
376 32 2 0.4694942938137195 0.3276097430144432 7.834829463150375 
377 32 2 1.290691793540717 0.9945861169552253 6.922658024872202 
378 32 2 0.9080083611756272 0.9945861169552254 5.998778492360915 
379 32 2 1.5612898436138156 1.6478675993934135 5.616095059995826 
380 32 2 1.8318878936869143 1.918465649466512 4.692215527484539 
381 32 2 2.4851693761251026 2.5717471319047003 5.074898959849628 
382 33 2 0.8718042347778516 9.294666558874013 10.02257341860116 
383 33 2 1.3718042347778514 8.794666558874013 9.315466637414612 
384 33 2 1.1012061847047527 8.524068508800914 8.391587104903326 
385 33 2 1.1012061847047527 8.141385076435824 9.315466637414612 
386 33 2 1.0452466255784036 7.545561015786385 8.46010842040386 
387 33 2 1.0452466255784036 6.838454234599837 7.753001639217312 
388 33 2 0.33813984439185624 7.545561015786385 7.753001639217312 
389 33 2 0.6087378944649549 7.816159065859483 8.6768811717286 
390 33 2 0.8793359445380535 8.086757115932581 9.600760704239885 
391 34 2 5.025544628791213 2.2791750129370936 0.7173344841148857 
392 34 2 5.025544628791213 1.3552954804258068 1.1000179164799755 
393 34 2 5.73265140997776 0.6481886992392591 1.1000179164799755 
394 34 2 5.23265140997776 0.14818869923925915 0.392911135293428 
395 34 2 4.0650366476839395 0.4361043023157618 1.770156120442787 
396 34 2 3.5650366476839395 0.9361043023157619 2.4772629016293344 
397 34 2 2.911755165245751 1.5893857847539503 2.859946333994424 
398 34 2 3.18235321531885 1.8599838348270488 1.9360668014831375 
399 34 2 2.18235321531885 1.859983834827049 1.9360668014831375 
400 35 2 6.736908116230534 2.6044531783118616 11.976637526055235 
401 35 2 6.466310066157436 2.3338551282387634 0.8161443580315224 
402 35 2 7.466310066157436 2.333855128238763 0.8161443580315225 
403 35 2 8.119591548595624 1.6805736458005747 1.1988277903966122 
404 35 2 8.032082457428178 0.8267176291594307 0.5044203817252495 
405 35 2 8.685363939866367 0.17343614672124247 0.12173694936015966 
406 35 2 8.685363939866367 0.17343614672124238 1.1217369493601597 
407 35 2 8.685363939866367 0.17343614672124247 2.1217369493601597 
408 35 2 7.978257158679819 0.17343614672124263 1.4146301681736122 
409 36 2 9.552577764890604 6.994499431828108 0.19415121859277837 
410 36 2 8.552577764890604 6.994499431828108 0.19415121859277842 
411 36 2 8.052577764890604 7.494499431828108 0.901257999779326 
412 36 2 8.052577764890604 8.201606213014655 0.1941512185927785 
413 36 2 7.446302083203516 8.502579914057655 11.373991982486226 
414 36 2 7.446302083203516 9.209686695244203 12.081098763672774 
415 36 2 7.7169001332766145 9.480284745317302 0.9206055956490613 
416 36 2 7.2169001332766145 9.980284745317302 1.6277123768356088 
417 36 2 6.7169001332766145 10.480284745317302 2.3348191580221562 
418 37 2 10.259684546077152 5.28739265064156 0.19415121859277837 
419 37 2 10.259684546077152 4.363513118130273 11.895840486762687 
420 37 2 10.259684546077152 3.6564063369437254 0.5185745674142362 
421 37 2 10.53028259615025 3.3858082868706267 1.442454099925523 
422 37 2 10.639943962400904 2.5964518981851445 2.4278195397488576 
423 37 2 10.910542012474004 2.867049948258243 3.3516990722601445 
424 37 2 10.910542012474004 3.79092948076953 2.969015639895055 
425 37 2 11.181140062547103 4.061527530842628 2.045136107383768 
426 37 2 11.88824684373365 4.768634312029175 2.045136107383768 
427 38 2 5.885173784977456 11.396683268030896 3.1613037678566513 
428 38 2 5.385173784977456 10.896683268030896 3.868410549043199 
429 38 2 5.885173784977456 10.396683268030896 3.1613037678566513 
430 38 2 5.885173784977456 10.013999835665807 4.085183300367938 
431 38 2 5.838856917573893 9.298578597413204 3.605425675645563 
432 38 2 5.838856917573893 10.22245812992449 3.9881091080106525 
433 38 2 6.492138400012082 10.875739612362679 4.370792540375742 
434 38 2 6.992138400012082 11.375739612362679 5.07789932156229 
435 38 2 7.26273645008518 11.646337662435778 6.001778854073577 
436 39 2 6.426369885123653 11.396683268030896 3.1613037678566513 
437 39 2 6.426369885123653 10.689576486844349 3.868410549043199 
438 39 2 6.155771835050555 10.41897843677125 4.792290081554485 
439 39 2 6.155771835050555 9.495098904259963 4.409606649189396 
440 39 2 6.072900364655795 8.448676446539096 4.700358687319542 
441 39 2 5.365793583469247 7.741569665352548 4.700358687319542 
442 39 2 4.712512101031059 8.394851147790737 5.083042119684632 
443 39 2 4.212512101031059 8.894851147790737 4.375935338498084 
444 39 2 3.5592306185928715 9.548132630228926 3.993251906132994 
445 40 2 2.048660645011654 3.5494519631643464 5.998778492360915 
446 40 2 2.048660645011654 4.549451963164346 5.998778492360915 
447 40 2 1.3953791625734655 3.8961704807261577 5.616095059995826 
448 40 2 1.3953791625734655 3.8961704807261577 4.616095059995826 
449 40 2 2.0491099623535813 4.397900303312791 4.809275839794014 
450 40 2 1.3958284799153935 5.0511817857509795 4.426592407428925 
451 40 2 1.8958284799153937 5.5511817857509795 3.719485626242377 
452 40 2 1.895828479915394 6.5511817857509795 3.719485626242377 
453 40 2 2.395828479915394 7.0511817857509795 4.426592407428925 
454 41 2 8.787973038131584 9.83188865872271 0.8914324777528518 
455 41 2 8.134691555693395 9.17860717628452 1.2741159101179416 
456 41 2 8.134691555693395 8.17860717628452 1.2741159101179416 
457 41 2 8.134691555693395 7.471500395097973 1.981222691304489 
458 41 2 7.415666013436869 7.782091942008682 2.385249913839105 
459 41 2 7.415666013436869 8.48919872319523 1.6781431326525573 
460 41 2 7.415666013436869 7.489198723195231 1.6781431326525573 
461 41 2 7.145067963363771 7.759796773268329 0.7542636001412707 