20241120B1C1

3728 atoms
3650 bonds
                   
3 atom types
1 bond types

0 16.401017071915383 xlo xhi
0 16.401017071915383 ylo yhi
0 16.401017071915383 zlo zhi

Masses

1 1
2 1
3 1

Atoms # molecular

1 1 1 9.322143669498706 8.287984304270907 5.977198096078022 
2 1 1 15.692085794627523 1.921674478724629 15.644101790210259 
3 1 1 1.8702701286348322 16.112743502206285 6.91652496002518 
4 1 1 9.726834049491325 1.0114448809475787 14.072393984249599 
5 1 1 14.013767358334379 8.047646436447293 8.785598507718161 
6 1 1 14.281582186134203 15.40802589612717 4.733663536367943 
7 1 1 9.93060856790613 1.2724993303856882 1.8787954570100003 
8 1 1 3.130822861681337 11.182981529015782 3.7228383028016836 
9 1 1 0.1016040772814473 8.762796050575677 0.5794494519833748 
10 1 1 12.081450305659652 12.681064451464675 5.162439122613565 
11 1 1 0.737120369856794 2.476690340315219 14.538767380897754 
12 1 1 4.480848708355578 6.204158578957766 7.259469834176841 
13 1 1 10.265007399266553 6.937424715096807 3.2745933806937746 
14 1 1 0.45180014885777714 1.2354022221076664 11.921673938805137 
15 1 1 14.875405589531068 3.9475910722477088 13.566362464825943 
16 1 1 1.1745458643787845 12.577100663234207 11.384524285885577 
17 1 1 7.349813215472047 15.914425191877754 0.3913229566374051 
18 1 1 4.8519902104089185 4.015057465652786 3.348593113542208 
19 1 1 2.371088936063748 2.166749907362931 13.649493754455406 
20 1 1 6.640250456863383 6.509079414563505 2.9588778361782753 
21 1 1 15.91787450211457 6.710110437121454 7.598867362942335 
22 1 1 3.286780043716405 11.592862158685895 12.584163527213315 
23 1 1 6.488702556028846 15.465462042813032 0.080539289049789 
24 1 1 7.285175204754902 9.436160947203165 11.397106374818419 
25 1 1 15.134185187240748 4.689880252480108 9.939687629925812 
26 1 1 9.402483190197483 2.6931204416588153 2.821035491802088 
27 1 1 7.254175068193732 9.741110257551695 6.050078564106547 
28 1 1 1.6191267696973695 14.875922726503076 14.184697966488548 
29 1 1 1.9098730483782038 9.500127934081359 13.597683335921433 
30 1 1 3.987977537091975 7.41846220280636 15.247677693178751 
31 1 1 15.177511607035413 1.7545993680589542 14.936776310491918 
32 1 1 13.04140008787673 4.414122631180305 4.988489177135906 
33 1 1 13.336353422057897 1.8092869694116729 7.128544223170074 
34 1 1 6.940476921914057 8.749467971206611 1.7966245440378552 
35 1 1 2.4275770802675543 5.5858568264301995 9.28438347561897 
36 1 1 5.551266890307591 11.710035019940117 8.804331003693676 
37 1 1 10.97524361482157 7.052912783385122 4.38199496335401 
38 1 1 2.829201066237091 12.300003202826934 2.075378003114557 
39 1 1 1.2335718544176357 1.2399502951052097 14.20032814028459 
40 1 1 1.7243604705900413 3.3240669037649657 13.708508294904398 
41 1 1 13.0265914920465 9.011270278408013 4.5659163919777885 
42 1 1 7.678971624089653 15.477927142126138 10.007567921994966 
43 1 1 14.45971134623159 13.215719119029654 13.619266604376033 
44 1 1 12.740254768547597 6.07363424276392 14.154436129057697 
45 1 1 10.227729569431572 8.239617985502754 16.024190272109024 
46 1 1 9.852259576237634 12.77841802445042 13.857056227664517 
47 1 1 9.944284932306427 4.711551247413861 12.18769584017518 
48 1 1 13.352233174332024 12.36662490871238 4.065747723753907 
49 1 1 1.5524852601994459 2.8091607209835563 3.357526701803132 
50 1 1 5.470713761327412 9.159202259926765 3.066363739427654 
51 1 3 9.164853340392527 13.09326976450067 12.62188308388939 
52 1 3 14.34190719987279 2.195353709655663 11.748196535542387 
53 1 3 10.618113771543317 13.083626554370955 5.904560502210327 
54 2 2 9.322143669498706 8.287984304270907 4.977198096078022 
55 2 2 9.822143669498706 7.787984304270907 5.68430487726457 
56 2 2 10.092741719571805 7.517386254197809 4.760425344753283 
57 2 2 10.092741719571805 8.224493035384356 4.0533185635667355 
58 2 2 10.746023202009994 7.571211552946167 4.436001995931825 
59 2 2 10.092741719571805 8.224493035384356 4.818685428296915 
60 2 2 9.592741719571805 8.724493035384356 4.111578647110367 
61 2 2 8.939460237133616 8.071211552946167 4.494262079475456 
62 2 2 8.668862187060517 8.341809603019266 3.5703825469641695 
63 2 2 8.668862187060517 7.9591261706541765 2.6465030144528825 
64 2 2 8.668862187060517 7.0352466381428895 2.263819582087793 
65 2 2 8.668862187060517 7.0352466381428895 1.2638195820877929 
66 2 2 9.051545619425607 7.0352466381428895 0.33994004957650614 
67 2 2 8.551545619425607 6.5352466381428895 1.0470468307630538 
68 2 2 8.551545619425607 6.5352466381428895 2.047046830763054 
69 2 2 9.258652400612155 6.5352466381428895 2.7541536119496013 
70 2 2 10.18253193312344 6.5352466381428895 3.1368370443146913 
71 2 2 10.18253193312344 6.5352466381428895 4.136837044314691 
72 2 2 10.83581341556163 5.881965155704701 3.7541536119496017 
73 2 2 10.83581341556163 5.881965155704701 4.754153611949602 
74 2 2 10.128706634375082 6.589071936891249 4.754153611949602 
75 2 2 9.475425151936893 7.2423534193294365 5.136837044314691 
76 2 2 8.768318370750345 6.535246638142889 5.136837044314691 
77 2 2 8.768318370750345 5.611367105631602 5.519520476679781 
78 2 2 8.45804682382033 6.017825296229042 5.509755597089224 
79 2 2 8.72864487389343 6.288423346302141 6.4336351296005105 
80 2 2 9.22864487389343 6.788423346302141 7.140741910787058 
81 2 2 9.22864487389343 6.788423346302141 6.140741910787058 
82 2 2 9.72864487389343 7.288423346302141 6.8478486919736055 
83 2 2 10.381926356331618 7.9417048287403285 7.230532124338695 
84 2 2 10.652524406404718 8.212302878813427 6.306652591827408 
85 2 2 10.152524406404718 8.712302878813427 5.59954581064086 
86 2 2 10.652524406404718 9.212302878813427 6.306652591827408 
87 2 2 11.652524406404718 9.212302878813427 6.306652591827408 
88 2 2 10.999242923966529 9.865584361251615 6.689336024192498 
89 2 2 11.269840974039628 9.594986311178516 7.613215556703785 
90 2 2 10.61655949160144 10.248267793616705 7.995898989068874 
91 2 2 10.61655949160144 9.865584361251615 7.072019456557587 
92 2 2 11.11655949160144 10.365584361251615 6.364912675371039 
93 2 2 10.73387605923635 10.365584361251615 7.288792207882326 
94 2 2 11.004474109309449 10.636182411324715 8.212671740393613 
95 2 2 11.004474109309449 11.018865843689804 7.288792207882327 
96 2 2 11.275072159382548 11.289463893762903 6.36491267537104 
97 2 2 11.275072159382548 11.289463893762903 5.36491267537104 
98 2 2 11.928353641820737 11.942745376201092 5.74759610773613 
99 2 2 11.657755591747637 12.213343426274191 4.823716575224843 
100 2 2 12.311037074185826 12.86662490871238 5.206400007589933 
101 2 2 12.581635124258925 12.59602685863928 4.282520475078646 
102 2 2 12.852233174332024 12.86662490871238 3.358640942567359 
103 3 2 9.975425151936895 7.634702821832718 5.594514663712933 
104 3 2 8.975425151936895 7.634702821832718 5.594514663712933 
105 3 2 9.628706634375083 6.9814213393945295 5.211831231347843 
106 3 2 9.358108584301984 6.710823289321431 6.13571076385913 
107 3 2 9.358108584301984 6.328139856956342 7.059590296370417 
108 3 2 8.858108584301984 5.828139856956342 6.35248351518387 
109 3 2 9.240792016667074 5.828139856956342 5.428603982672583 
110 3 2 8.587510534228885 6.4814213393945295 5.811287415037673 
111 3 2 8.587510534228885 5.774314558207982 5.104180633851126 
112 3 2 8.587510534228885 4.850435025696695 4.721497201486036 
113 3 2 7.934229051790697 5.5037165081348824 5.104180633851126 
114 3 2 8.587510534228885 4.850435025696694 5.486864066216215 
115 3 2 7.934229051790696 4.197153543258506 5.104180633851126 
116 3 2 7.2271222706041485 3.4900467620719584 5.104180633851126 
117 3 2 7.497720320677247 3.2194487119988597 6.028060166362413 
118 3 2 7.2271222706041485 2.948850661925761 5.104180633851126 
119 3 2 7.2271222706041485 2.948850661925761 4.104180633851126 
120 3 2 6.57384078816596 2.2955691794875728 4.486864066216215 
121 3 2 6.3032427380928615 2.5661672295606714 3.5629845337049284 
122 3 2 5.596135956906314 1.859060448374124 3.5629845337049284 
123 3 2 4.672256424395027 1.8590604483741242 3.180301101339839 
124 3 2 4.672256424395027 1.8590604483741242 2.180301101339839 
125 3 2 5.172256424395027 1.359060448374124 2.8874078825263862 
126 3 2 4.789572992029937 1.359060448374124 3.8112874150376728 
127 3 2 3.8325556813729973 1.594482249107628 3.4675450020141794 
128 3 2 4.539662462559545 2.3015890302941755 3.4675450020141794 
129 3 2 3.6157829300482582 2.301589030294176 3.0848615696490898 
130 3 2 3.6157829300482582 3.225468562805463 3.4675450020141794 
131 3 2 4.539662462559545 3.225468562805463 3.850228434379269 
132 3 2 4.810260512632643 3.4960666128785616 4.774107966890556 
133 3 2 4.810260512632643 3.8787500452436516 5.697987499401843 
134 3 2 4.156979030194456 3.2254685628054633 5.315304067036753 
135 3 2 4.427577080267554 3.496066612878562 6.23918359954804 
136 3 2 3.9275770802675543 3.996066612878562 6.946290380734588 
137 3 2 3.9275770802675543 3.996066612878562 5.946290380734588 
138 3 2 3.9275770802675543 2.996066612878562 5.946290380734588 
139 3 2 3.9275770802675543 2.996066612878562 6.946290380734588 
140 3 2 3.220470299081007 2.996066612878562 7.653397161921135 
141 3 2 3.220470299081007 3.378750045243652 8.577276694432422 
142 3 2 3.220470299081007 4.0858568264301995 9.28438347561897 
143 3 2 2.220470299081007 4.0858568264301995 9.28438347561897 
144 3 2 2.220470299081007 4.0858568264301995 8.28438347561897 
145 3 2 1.7204702990810068 4.5858568264301995 7.577276694432422 
146 3 2 2.4275770802675543 3.878750045243652 7.577276694432422 
147 3 2 2.4275770802675543 4.5858568264301995 8.28438347561897 
148 3 2 2.4275770802675543 4.5858568264301995 7.28438347561897 
149 3 2 1.9275770802675543 5.0858568264301995 6.577276694432422 
150 3 2 2.4275770802675543 5.5858568264301995 7.28438347561897 
151 3 2 2.4275770802675543 5.5858568264301995 8.28438347561897 
152 4 2 9.975425151936895 7.634702821832718 5.594514663712933 
153 4 2 10.682531933123443 8.341809603019266 5.594514663712933 
154 4 2 10.182531933123443 7.841809603019266 6.301621444899481 
155 4 2 10.182531933123443 7.841809603019266 7.301621444899481 
156 4 2 11.106411465634729 7.841809603019266 6.918938012534391 
157 4 2 10.723728033269639 7.841809603019266 7.842817545045678 
158 4 2 10.016621252083091 7.134702821832718 7.842817545045678 
159 4 2 9.363339769644902 6.48142133939453 8.225500977410768 
160 4 2 10.016621252083091 5.828139856956342 7.842817545045678 
161 4 2 9.746023202009992 6.09873790702944 6.918938012534391 
162 4 2 9.746023202009992 7.022617439540727 6.5362545801693015 
163 4 2 10.128706634375082 7.022617439540727 5.6123750476580145 
164 4 2 10.628706634375082 6.522617439540727 4.905268266471467 
165 4 2 10.358108584301982 6.252019389467629 3.9813887339601797 
166 4 2 9.704827101863794 5.598737907029441 4.364072166325269 
167 4 2 9.322143669498704 5.598737907029441 5.287951698836556 
168 4 2 8.398264136987418 5.598737907029441 4.905268266471467 
169 4 2 7.69115735580087 4.891631125842894 4.905268266471467 
170 4 2 7.420559305727772 4.6210330757697955 5.829147798982754 
171 4 2 6.920559305727772 4.1210330757697955 6.5362545801693015 
172 4 2 6.267277823289584 4.774314558207983 6.918938012534391 
173 4 2 5.560171042103036 4.774314558207983 6.211831231347844 
174 4 2 4.906889559664847 4.1210330757697955 6.594514663712934 
175 4 2 3.9068895596648474 4.1210330757697955 6.594514663712934 
176 4 2 4.13085317485595 4.7585032011031 7.045343533871113 
177 4 2 4.13085317485595 5.682382733614387 6.662660101506023 
178 4 2 3.860255124782852 5.952980783687485 7.58653963401731 
179 4 2 3.860255124782852 4.952980783687485 7.58653963401731 
180 4 2 3.860255124782852 4.245874002500937 8.293646415203858 
181 4 2 3.860255124782852 4.952980783687485 9.000753196390406 
182 4 2 4.13085317485595 4.682382733614387 8.07687366387912 
183 4 2 4.51353660722104 4.682382733614387 9.000753196390406 
184 4 2 4.784134657294138 4.952980783687485 8.07687366387912 
185 4 2 4.13085317485595 5.606262266125674 8.45955709624421 
186 4 2 4.63085317485595 6.106262266125674 9.166663877430757 
187 4 2 4.63085317485595 6.106262266125674 8.166663877430757 
188 4 2 5.554732707367237 6.106262266125674 8.549347309795847 
189 4 2 5.054732707367237 5.606262266125674 7.842240528609299 
190 4 2 5.054732707367237 6.5301417986369605 8.224923960974388 
191 4 2 5.708014189805426 7.183423281075148 7.842240528609298 
192 4 2 5.325330757440336 7.183423281075148 8.766120061120585 
193 4 2 5.325330757440336 7.566106713440238 9.689999593631871 
194 4 2 5.325330757440336 8.566106713440238 9.689999593631871 
195 4 2 5.325330757440336 9.489986245951524 9.307316161266781 
196 4 2 5.978612239878524 8.836704763513335 9.689999593631871 
197 4 2 6.685719021065072 8.129597982326787 9.689999593631871 
198 4 2 5.978612239878524 8.129597982326787 10.397106374818419 
199 4 2 5.978612239878524 8.129597982326787 11.397106374818419 
200 4 2 6.631893722316713 8.782879464764976 11.779789807183509 
201 5 2 16.074769226992615 1.921674478724629 0.1669642508061635 
202 5 2 15.367662445806067 2.6287812599111766 0.1669642508061635 
203 5 2 14.867662445806067 2.1287812599111766 0.8740710319927096 
204 5 2 15.367662445806067 2.6287812599111766 1.5811778131792558 
205 5 2 14.44378291329478 2.6287812599111766 1.9638612455443472 
206 5 2 14.44378291329478 3.6287812599111766 1.9638612455443472 
207 5 2 14.061099480929691 3.6287812599111766 1.039981713033061 
208 5 2 13.678416048564602 3.6287812599111766 0.11610218052177501 
209 5 2 13.678416048564602 3.2460978275460866 15.593239719925872 
210 5 2 14.38552282975115 3.2460978275460866 14.886132938739324 
211 5 2 14.38552282975115 3.2460978275460866 15.886132938739324 
212 5 2 14.38552282975115 2.863414395180997 0.4089953993352289 
213 5 2 13.73224134731296 2.2101329127428087 0.02631196697013749 
214 5 2 13.23224134731296 1.7101329127428087 0.7334187481566836 
215 5 2 13.73224134731296 1.2101329127428087 1.4405255293432297 
216 5 2 14.656120879824247 1.2101329127428084 1.0578420969781384 
217 5 2 14.656120879824247 0.5030261315562609 1.7649488781646845 
218 5 2 14.156120879824247 1.003026131556261 1.0578420969781384 
219 5 2 14.426718929897346 0.7324280814831623 0.13396256446685229 
220 5 2 14.156120879824247 1.003026131556261 15.61110010387095 
221 5 2 13.449014098637699 1.003026131556261 14.903993322684402 
222 5 2 12.79573261619951 0.3497446491180728 14.521309890319312 
223 5 2 13.1784160485646 0.3497446491180728 13.597430357808026 
224 5 2 13.1784160485646 16.04365493984691 12.890323576621478 
225 5 2 13.956735079785938 16.241402877601242 12.030757161925715 
226 5 2 14.663841860972486 0.5474925868724055 12.030757161925715 
227 5 2 14.281158428607396 0.5474925868724057 12.954636694437001 
228 5 2 14.281158428607396 0.5474925868724055 13.954636694437001 
229 5 2 14.934439911045585 1.2007740693105937 13.571953262071911 
230 5 2 15.434439911045585 1.7007740693105937 14.27906004325846 
231 5 2 16.141546692232133 2.407880850497141 14.27906004325846 
232 5 2 0.39381110275493825 1.754599368058953 14.661743475623549 
233 5 2 16.087721393483776 1.754599368058953 13.954636694437001 
234 5 2 0.18670432156839212 2.254599368058953 14.661743475623549 
235 5 2 0.18670432156839212 1.3307198355476664 15.044426907988639 
236 5 2 0.8938111027549382 2.037826616734214 15.044426907988639 
237 5 2 1.2764945351200296 2.037826616734214 15.968306440499925 
238 5 2 0.27649453512002964 2.0378266167342143 15.968306440499925 
239 5 2 16.024230124597224 2.6911080991724026 16.350989872865014 
240 5 2 16.29482817467032 2.9617061492455012 15.427110340353728 
241 5 2 0.27649453512002964 2.9617061492455012 16.350989872865014 
242 5 2 16.177511607035413 2.4617061492455012 0.657079582136177 
243 5 2 15.177511607035411 2.4617061492455017 0.657079582136177 
244 5 2 14.677511607035411 2.9617061492455017 16.350989872865014 
245 5 2 14.94810965710851 3.2323041993186004 15.427110340353728 
246 5 2 15.44810965710851 2.7323041993186004 14.72000355916718 
247 5 2 0.04709258519312698 2.7323041993186004 14.72000355916718 
248 5 2 16.177511607035413 2.4617061492455017 15.643883091678466 
249 5 2 16.177511607035413 1.754599368058954 14.936776310491918 
250 6 2 16.39919257581407 1.2145676975380812 15.644101790210259 
251 6 2 0.49817550389868615 0.7145676975380811 14.936995009023711 
252 6 2 16.24591109337588 1.3678491799762695 14.554311576658622 
253 6 2 15.975313043302782 1.0972511299031709 13.630432044147335 
254 6 2 15.592629610937692 1.0972511299031709 12.70655251163605 
255 6 2 15.322031560864593 0.8266530798300723 11.782672979124763 
256 6 2 14.322031560864593 0.8266530798300724 11.782672979124763 
257 6 2 14.322031560864593 0.8266530798300724 12.782672979124763 
258 6 2 13.322031560864593 0.8266530798300725 12.782672979124763 
259 6 2 14.02913834205114 0.8266530798300725 13.489779760311311 
260 6 2 13.758540291978042 1.097251129903171 12.565900227800025 
261 6 2 14.46564707316459 1.097251129903171 13.273007008986573 
262 6 2 13.758540291978042 1.8043579110897188 13.273007008986573 
263 6 2 12.834660759466756 1.804357911089719 12.890323576621483 
264 6 2 12.834660759466756 1.804357911089719 13.890323576621483 
265 6 2 13.334660759466756 1.3043579110897188 13.183216795434936 
266 6 2 13.334660759466756 0.38047837857843203 13.565900227800025 
267 6 2 12.834660759466756 16.281495450493814 12.858793446613477 
268 6 2 12.334660759466756 0.38047837857843214 12.15168666542693 
269 6 2 11.627553978280208 16.074388669307268 12.15168666542693 
270 6 2 11.627553978280208 0.5972511299031714 12.534370097792019 
271 6 2 12.627553978280208 0.5972511299031714 12.534370097792019 
272 6 2 11.974272495842019 16.344986719380366 12.917053530157109 
273 6 2 11.70367444576892 0.21456769753808186 11.993173997645822 
274 6 2 11.134526852054085 15.85525365212287 11.80894502091407 
275 6 2 10.427420070867537 15.85525365212287 12.516051802100618 
276 6 2 10.427420070867537 0.3781161127187733 12.898735234465708 
277 6 2 11.134526852054085 0.3781161127187732 13.605842015652255 
278 6 2 11.134526852054085 0.3781161127187732 12.605842015652255 
279 6 2 11.787808334492274 1.0313975951569614 12.988525448017345 
280 6 2 12.441089816930463 0.3781161127187731 13.371208880382435 
281 6 2 12.441089816930463 1.3019956452300598 12.988525448017345 
282 6 2 13.094371299368651 1.9552771276682481 13.371208880382435 
283 6 2 13.094371299368651 1.2481703464817004 14.078315661568983 
284 6 2 13.094371299368651 1.6308537788467903 15.002195194080269 
285 6 2 13.094371299368651 2.3379605600333377 14.29508841289372 
286 6 2 13.36496934944175 2.6085586101064364 13.371208880382435 
287 6 2 14.288848881953037 2.6085586101064364 12.988525448017345 
288 6 2 14.018250831879937 2.879156660179535 13.912404980528631 
289 6 2 14.671532314318126 3.5324381426177234 14.29508841289372 
290 6 2 14.942130364391225 3.803036192690822 15.218967945405007 
291 6 2 14.942130364391225 4.803036192690822 15.218967945405007 
292 6 2 14.235023583204677 4.803036192690822 15.926074726591555 
293 6 2 13.852340150839588 4.803036192690822 15.002195194080269 
294 6 2 14.352340150839588 5.303036192690822 15.709301975266817 
295 6 2 13.852340150839588 5.803036192690822 15.002195194080269 
296 6 2 13.469656718474498 5.803036192690822 14.078315661568983 
297 6 2 13.740254768547597 6.07363424276392 13.154436129057697 
298 6 2 12.740254768547597 6.07363424276392 13.154436129057697 
299 7 2 8.802954516980039 1.011444880947579 13.68971055188451 
300 7 2 8.802954516980039 1.011444880947579 14.68971055188451 
301 7 2 8.14967303454185 0.3581633985093907 14.30702711951942 
302 7 2 8.14967303454185 0.35816339850939083 13.30702711951942 
303 7 2 7.64967303454185 0.8581633985093909 12.599920338332872 
304 7 2 7.64967303454185 0.8581633985093909 11.599920338332872 
305 7 2 7.64967303454185 16.335300937913487 11.217236905967782 
306 7 2 7.64967303454185 16.335300937913487 10.217236905967782 
307 7 2 7.64967303454185 15.62819415672694 10.92434368715433 
308 7 2 7.266989602176761 15.62819415672694 11.848223219665616 
309 7 2 8.190869134688047 15.62819415672694 11.465539787300527 
310 7 2 8.690869134688047 16.12819415672694 12.172646568487075 
311 7 2 9.190869134688047 0.22717708481155674 12.879753349673623 
312 7 2 8.483762353501499 0.9342838659981043 12.879753349673623 
313 7 2 8.483762353501499 0.9342838659981044 11.879753349673623 
314 7 2 9.137043835939687 1.5875653484362928 12.262436782038712 
315 7 2 9.137043835939687 2.51144488094758 12.645120214403802 
316 7 2 9.637043835939687 2.01144488094758 11.938013433217254 
317 7 2 10.344150617126235 2.01144488094758 11.230906652030706 
318 7 2 10.997432099564424 1.3581633985093915 10.848223219665616 
319 7 2 10.997432099564424 1.3581633985093915 9.848223219665616 
320 7 2 10.497432099564424 0.8581633985093915 9.141116438479068 
321 7 2 9.997432099564424 0.3581633985093915 8.43400965729252 
322 7 2 9.614748667199335 0.35816339850939155 7.5101301247812335 
323 7 2 9.681738753185424 1.2567657587011702 7.543334451497799 
324 7 2 9.952336803258524 1.5273638087742687 6.619454918986512 
325 7 2 9.245230022071976 1.527363808774269 5.912348137799964 
326 7 2 8.538123240885428 2.2344705899608166 5.912348137799964 
327 7 2 8.538123240885428 2.2344705899608166 6.912348137799964 
328 7 2 8.538123240885428 2.6171540223259067 7.836227670311251 
329 7 2 9.245230022071976 3.324260803512454 7.836227670311251 
330 7 2 9.898511504510164 2.670979321074266 7.453544237946161 
331 7 2 9.191404723323616 1.9638725398877184 7.453544237946161 
332 7 2 10.115284255834903 1.9638725398877181 7.836227670311251 
333 7 2 10.385882305908002 1.6932744898146197 6.912348137799964 
334 7 2 10.385882305908002 1.3105910574495299 7.836227670311251 
335 7 2 11.385882305908002 1.3105910574495296 7.836227670311251 
336 7 2 11.885882305908002 1.8105910574495296 8.543334451497799 
337 7 2 12.59298908709455 2.517697838636077 8.543334451497799 
338 7 2 13.59298908709455 2.517697838636077 8.543334451497799 
339 7 2 13.863587137167649 2.7882958887091753 7.619454918986512 
340 7 2 14.134185187240748 3.058893938782274 8.543334451497799 
341 7 2 15.134185187240748 3.058893938782274 8.543334451497799 
342 7 2 15.404783237313847 2.7882958887091753 9.467213984009085 
343 7 2 15.787466669678937 2.7882958887091753 10.391093516520371 
344 7 2 16.058064719752036 3.0588939387822736 9.467213984009085 
345 7 2 15.134185187240748 3.058893938782274 9.849897416374175 
346 7 2 15.134185187240748 3.7660007199688215 10.557004197560723 
347 7 2 15.134185187240748 3.7660007199688215 9.557004197560723 
348 8 2 9.226834049491325 0.5114448809475787 13.365287203063051 
349 8 2 9.497432099564424 0.7820429310206773 12.441407670551765 
350 8 2 9.497432099564424 16.259180470424774 12.058724238186675 
351 8 2 9.497432099564424 16.259180470424774 13.058724238186675 
352 8 2 9.114748667199335 16.259180470424774 13.982603770697962 
353 8 2 9.114748667199335 15.876497038059684 14.906483303209248 
354 8 2 8.407641886012787 15.169390256873136 14.906483303209248 
355 8 2 8.024958453647697 15.169390256873136 13.982603770697962 
356 8 2 8.407641886012787 15.169390256873136 13.058724238186675 
357 8 2 8.137043835939687 15.439988306946235 12.13484470567539 
358 8 2 8.407641886012787 15.710586357019334 11.210965173164103 
359 8 2 8.407641886012787 0.3095692851039509 11.210965173164103 
360 8 2 8.407641886012787 0.309569285103951 10.210965173164103 
361 8 2 8.407641886012787 1.3095692851039509 10.210965173164103 
362 8 2 8.407641886012787 1.3095692851039509 9.210965173164103 
363 8 2 8.407641886012787 0.38568975259266414 8.828281740799014 
364 8 2 8.024958453647697 0.3856897525926642 9.7521612733103 
365 8 2 8.295556503720796 0.6562878026657627 10.676040805821586 
366 8 2 8.295556503720796 0.6562878026657627 11.676040805821586 
367 8 2 8.295556503720796 1.5801673351770495 12.058724238186675 
368 8 2 8.795556503720796 1.0801673351770495 11.351617457000128 
369 8 2 8.795556503720796 0.373060553990502 10.64451067581358 
370 8 2 8.795556503720796 0.373060553990502 9.64451067581358 
371 8 2 9.066154553793895 0.6436586040636005 8.720631143302294 
372 8 2 9.530071369933328 1.4811087500261977 8.957253342787519 
373 8 2 9.530071369933328 1.8637921823912875 9.881132875298805 
374 8 2 9.030071369933328 1.3637921823912875 9.174026094112257 
375 8 2 9.737178151119876 0.6566854012047398 9.174026094112257 
376 8 2 10.007776201192975 0.3860873511316413 10.097905626623543 
377 8 2 10.007776201192975 0.38608735113164117 11.097905626623543 
378 8 2 10.278374251266074 0.6566854012047397 12.02178515913483 
379 8 2 9.778374251266074 1.1566854012047398 11.314678377948281 
380 8 2 9.778374251266074 2.0805649337160266 10.931994945583192 
381 8 2 10.431655733704263 1.4272834512778383 11.314678377948281 
382 8 2 10.931655733704263 0.9272834512778383 12.02178515913483 
383 8 2 11.431655733704263 1.4272834512778383 12.728891940321377 
384 8 2 12.355535266215549 1.427283451277838 13.111575372686467 
385 8 2 12.855535266215549 1.927283451277838 12.404468591499919 
386 8 2 11.931655733704263 1.927283451277838 12.787152023865008 
387 8 2 11.931655733704263 2.309966883642928 13.711031556376295 
388 8 2 12.584937216142452 2.963248366081116 13.328348124011205 
389 8 2 13.292043997329 3.6703551472676637 13.328348124011205 
390 8 2 12.292043997329 3.670355147267664 13.328348124011205 
391 8 2 11.368164464817713 3.6703551472676645 13.711031556376295 
392 8 2 10.444284932306427 3.6703551472676645 13.328348124011205 
393 8 2 10.061601499941338 3.6703551472676645 12.404468591499919 
394 8 2 9.561601499941338 4.1703551472676645 13.111575372686467 
395 8 2 9.832199550014437 4.440953197340763 14.035454905197753 
396 8 2 9.561601499941338 4.711551247413861 13.111575372686467 
397 9 2 13.513767358334379 8.547646436447293 8.078491726531613 
398 9 2 13.513767358334379 8.547646436447293 7.078491726531613 
399 9 2 12.80666057714783 8.547646436447293 7.785598507718161 
400 9 2 12.153379094709642 7.894364954009105 8.16828194008325 
401 9 2 11.500097612271453 7.241083471570917 8.55096537244834 
402 9 2 11.000097612271453 6.741083471570917 7.843858591261792 
403 9 2 12.000097612271453 6.741083471570917 7.843858591261792 
404 9 2 12.707204393458001 6.741083471570917 7.1367518100752445 
405 9 2 12.707204393458001 6.741083471570917 8.136751810075245 
406 9 2 12.000097612271453 6.033976690384369 8.136751810075245 
407 9 2 11.076218079760167 6.033976690384369 7.754068377710155 
408 9 2 10.576218079760167 6.533976690384369 7.046961596523607 
409 9 2 10.305620029687068 6.8045747404574675 6.12308206401232 
410 9 2 10.305620029687068 6.09746795927092 6.830188845198868 
411 9 2 9.805620029687068 6.59746795927092 7.537295626385416 
412 9 2 9.09851324850052 6.59746795927092 6.830188845198869 
413 9 2 9.09851324850052 5.673588426759633 7.212872277563958 
414 9 2 8.827915198427421 5.402990376686534 6.2889927450526715 
415 9 2 9.327915198427421 4.902990376686534 6.996099526239219 
416 9 2 8.404035665916135 4.902990376686534 6.61341609387413 
417 9 2 7.904035665916135 5.402990376686534 5.906309312687583 
418 9 2 6.904035665916135 5.402990376686534 5.906309312687583 
419 9 2 7.174633715989233 5.132392326613436 4.982429780176296 
420 9 2 6.5213522335510445 4.479110844175248 4.599746347811206 
421 9 2 6.266804266795894 4.267596064174206 5.266851315431287 
422 9 2 5.766804266795894 3.7675960641742052 5.973958096617835 
423 9 2 6.420085749234083 4.4208775466123935 6.356641528982925 
424 9 2 6.420085749234083 4.803560978977483 5.432761996471638 
425 9 2 7.420085749234083 4.803560978977483 5.432761996471638 
426 9 2 8.127192530420631 5.510667760164031 5.432761996471638 
427 9 2 8.127192530420631 6.434547292675318 5.050078564106548 
428 9 2 7.473911047982442 7.087828775113507 4.667395131741459 
429 9 2 7.091227615617353 7.087828775113507 3.7435155992301716 
430 9 2 7.091227615617353 6.087828775113507 3.7435155992301716 
431 9 2 7.744509098055541 6.741110257551695 4.126199031595261 
432 9 2 7.037402316868993 6.741110257551695 4.833305812781808 
433 9 2 6.384120834430805 6.087828775113507 4.450622380416719 
434 9 2 6.384120834430805 6.470512207478596 5.374501912928006 
435 9 2 6.384120834430805 7.394391739989883 5.757185345293095 
436 9 2 5.730839351992616 6.741110257551695 6.139868777658185 
437 9 2 6.384120834430804 6.087828775113506 6.5225522100232745 
438 9 2 6.884120834430804 6.587828775113506 5.8154454288367265 
439 9 2 6.884120834430804 7.587828775113506 5.8154454288367265 
440 9 2 7.808000366942091 7.587828775113506 5.432761996471637 
441 9 2 7.308000366942091 8.087828775113506 6.139868777658185 
442 9 2 6.808000366942091 8.587828775113506 5.432761996471637 
443 9 2 6.808000366942091 8.587828775113506 6.432761996471637 
444 9 2 6.100893585755543 8.587828775113506 5.725655215285089 
445 9 2 6.754175068193732 9.241110257551695 5.342971782919999 
446 10 2 14.010984136061104 15.678623946200268 3.809784003856656 
447 10 2 14.010984136061104 15.678623946200268 2.809784003856656 
448 10 2 13.303877354874556 15.678623946200268 2.1026772226701085 
449 10 2 12.596770573688008 15.678623946200268 1.395570441483561 
450 10 2 12.096770573688008 15.178623946200268 2.1026772226701085 
451 10 2 12.096770573688008 15.178623946200268 1.1026772226701085 
452 10 2 11.096770573688008 15.178623946200268 1.1026772226701085 
453 10 2 11.596770573688008 15.678623946200268 0.395570441483561 
454 10 2 10.88966379250146 14.97151716501372 0.3955704414835611 
455 10 2 10.182557011314913 14.264410383827173 0.39557044148356113 
456 10 2 9.529275528876724 13.611128901388984 0.778253873848651 
457 10 2 9.258677478803625 13.340530851315885 16.25539141325275 
458 10 2 8.875994046438535 13.340530851315885 0.778253873848651 
459 10 2 9.375994046438535 13.840530851315885 1.4853606550351985 
460 10 2 8.875994046438535 14.340530851315885 2.192467436221746 
461 10 2 8.875994046438535 13.416651318804599 1.8097840038566564 
462 10 2 8.222712564000346 12.76336983636641 2.1924674362217464 
463 10 2 8.222712564000346 12.76336983636641 3.1924674362217464 
464 10 2 9.222712564000346 12.76336983636641 3.1924674362217464 