20241016A1C1

14804 atoms
14847 bond

0 93.93364366277243 xlo xhi
0 93.93364366277243 ylo yhi

Masses

1 1
2 1
3 1

Atoms # ID molID type x y z

1 1 1 56.235382700884166 17.705107073886875 0 
2 1 1 92.12038531846406 15.135777362506044 0 
3 1 1 28.26016223245503 39.05159587342365 0 
4 1 1 85.84983649541813 88.23164190311381 0 
5 1 1 91.12937551197662 29.65631002614229 0 
6 1 1 73.89356652497345 51.267451375940865 0 
7 1 1 40.21135022098379 39.084286008666425 0 
8 1 1 23.18961411548924 32.25626689947592 0 
9 1 1 64.15130545910785 24.227183280106257 0 
10 1 1 34.18866854392553 18.307999886209256 0 
11 1 1 59.22297033557706 22.003017317137502 0 
12 1 1 4.430290956847755 66.26329678227626 0 
13 1 1 68.53807184053834 66.89903853112766 0 
14 1 1 36.60811684641072 76.50589196265592 0 
15 1 1 75.26084138225893 46.63629963256245 0 
16 1 1 87.81956426074217 36.717618992200165 0 
17 1 1 61.06234262963647 26.64192479078258 0 
18 1 1 10.885766171477751 49.22622321284871 0 
19 1 1 32.30959593083226 93.51140051771765 0 
20 1 1 15.380796440730244 49.807614910699 0 
21 1 1 84.04254105875847 28.953062211717995 0 
22 1 1 49.960837487974295 34.67867025311397 0 
23 1 1 39.70270368788017 49.93725027966817 0 
24 1 1 73.81658679959584 93.76205930588401 0 
25 1 1 46.95768312397687 85.18964209534491 0 
26 1 1 20.129730611469256 76.25518703104468 0 
27 1 1 86.26221857966367 72.15609879620249 0 
28 1 1 71.57929731636874 13.345019872798344 0 
29 1 1 47.18124325851506 77.25133893604324 0 
30 1 1 18.255085490120358 36.81895184451195 0 
31 1 1 75.00331064903345 61.711312054456286 0 
32 1 1 74.78571507567767 64.91118944377553 0 
33 1 1 69.85364136665527 54.7552460042682 0 
34 1 1 86.4176520328011 18.810487981034694 0 
35 1 1 58.71693690745934 59.57807764255616 0 
36 1 1 15.622414247645372 33.42202243747666 0 
37 1 1 83.18553339073303 58.0110358221276 0 
38 1 1 8.18180100343734 47.55633976294414 0 
39 1 1 31.391202619338863 71.85029755706455 0 
40 1 1 6.691201753648946 41.312525440530536 0 
41 1 1 29.184652161406166 38.24573527565601 0 
42 1 1 29.326821482763766 63.485835553097594 0 
43 1 1 57.52821216256315 66.83632545597949 0 
44 1 1 58.36759252388821 62.41800343288264 0 
45 1 1 5.8075846834240785 63.39461714658018 0 
46 1 1 55.64657549011503 76.77156865726967 0 
47 1 1 64.48645804948684 52.67648526068412 0 
48 1 1 72.37720333380278 55.54144706603076 0 
49 1 1 43.07101393470133 4.614601347420377 0 
50 1 1 14.496767429270312 78.0767573119778 0 
51 1 1 61.93084201929044 9.18520517251075 0 
52 1 1 28.367565139060357 61.49227337790411 0 
53 1 1 48.337060267705475 66.22624493244278 0 
54 1 1 12.76664630431409 37.65586577116606 0 
55 1 1 6.211932822329295 14.47443479201441 0 
56 1 1 9.231424975767878 83.08199093013016 0 
57 1 1 18.253087603770126 39.96301778861784 0 
58 1 1 72.66373958126887 23.50943496466433 0 
59 1 1 74.20177503435423 26.42264590191727 0 
60 1 1 28.346893366942293 42.04876947619144 0 
61 1 1 59.93768856938865 11.943082618364494 0 
62 1 1 62.853966559673246 63.84695861814517 0 
63 1 1 41.548616145746884 55.17920118323335 0 
64 1 1 76.72870663894128 58.62733680321648 0 
65 1 1 62.84233981423694 42.81426781099444 0 
66 1 1 62.06164722266845 20.837080069886596 0 
67 1 1 76.43677387565256 63.59401943665804 0 
68 1 1 28.751245926099443 53.29058202537506 0 
69 1 1 20.472050772786645 20.017290688689553 0 
70 1 1 41.90923610046811 81.4363982680443 0 
71 1 1 57.888561183129305 63.24080948416928 0 
72 1 1 13.414333925234919 33.65774541015063 0 
73 1 1 13.37450194204328 69.59190159348026 0 
74 1 1 20.549563572687482 51.94240463163826 0 
75 1 1 10.94455999461788 7.575382356702896 0 
76 1 1 79.83410468713045 13.265183041073685 0 
77 1 1 74.24076958818071 14.117839894113873 0 
78 1 1 53.52038718601133 24.609545261504046 0 
79 1 1 65.02752385151997 11.479474931025129 0 
80 1 1 22.581894202731792 36.69011807603462 0 
81 1 1 72.25549618476009 14.553563765907297 0 
82 1 1 49.59979893291471 17.537794188607823 0 
83 1 1 64.39622476583558 71.52258627802662 0 
84 1 1 90.78766038685318 31.46176939616404 0 
85 1 1 93.39422875411114 90.68726501104923 0 
86 1 1 89.87515889317423 77.02008235658043 0 
87 1 1 12.489955572943353 37.93448847571458 0 
88 1 1 84.22277177440876 34.92806615939421 0 
89 1 1 58.53060111195177 31.279233087371367 0 
90 1 1 7.067383744306072 73.53623190438311 0 
91 1 1 3.838643005678497 31.900578393769024 0 
92 1 1 83.22420907899478 39.49998014484471 0 
93 1 1 21.701324400486197 70.43370095128066 0 
94 1 1 91.07881571349834 19.851032256298254 0 
95 1 1 77.669566046374 3.559750762480055 0 
96 1 1 53.16197791968999 49.30014414129679 0 
97 1 1 93.52218255876618 12.552097139434 0 
98 1 1 85.41804006588039 20.777465400237457 0 
99 1 3 75.21316407968584 38.32275293593383 0 
100 1 3 86.31370995754064 33.649636882970555 0 
101 1 3 37.15860397209837 36.34002905599801 0 
102 1 3 17.485125007875766 41.15701409798512 0 
103 1 3 41.413303572593364 20.21633150961717 0 
104 1 3 20.329347424075536 77.71588746125964 0 
105 2 2 55.26538270088417 16.735107073886876 0 
106 2 2 56.235382700884166 15.765107073886876 0 
107 2 2 57.205382700884165 14.795107073886875 0 
108 2 2 56.235382700884166 13.825107073886874 0 
109 2 2 57.205382700884165 13.825107073886874 0 
110 2 2 58.175382700884164 14.795107073886875 0 
111 2 2 57.205382700884165 15.765107073886876 0 
112 2 2 58.175382700884164 16.735107073886876 0 
113 2 2 59.14538270088416 17.705107073886875 0 
114 2 2 60.11538270088416 18.675107073886874 0 
115 2 2 59.14538270088416 18.675107073886874 0 
116 2 2 60.11538270088416 19.645107073886873 0 
117 2 2 61.08538270088416 18.675107073886874 0 
118 2 2 61.08538270088416 19.645107073886873 0 
119 2 2 60.11538270088416 20.615107073886872 0 
120 2 2 59.14538270088416 19.645107073886873 0 
121 2 2 58.175382700884164 18.675107073886874 0 
122 2 2 57.205382700884165 19.645107073886873 0 
123 2 2 58.175382700884164 20.615107073886872 0 
124 2 2 57.205382700884165 21.58510707388687 0 
125 2 2 56.235382700884166 20.615107073886872 0 
126 2 2 55.26538270088417 19.645107073886873 0 
127 2 2 56.235382700884166 18.675107073886874 0 
128 2 2 57.205382700884165 17.705107073886875 0 
129 2 2 57.205382700884165 18.675107073886874 0 
130 2 2 56.235382700884166 19.645107073886873 0 
131 2 2 55.26538270088417 18.675107073886874 0 
132 2 2 54.29538270088417 19.645107073886873 0 
133 2 2 53.32538270088417 20.615107073886872 0 
134 2 2 52.35538270088417 21.58510707388687 0 
135 2 2 51.38538270088417 20.615107073886872 0 
136 2 2 50.41538270088417 21.58510707388687 0 
137 2 2 49.445382700884174 20.615107073886872 0 
138 2 2 48.475382700884175 19.645107073886873 0 
139 2 2 47.50538270088418 20.615107073886872 0 
140 2 2 48.475382700884175 21.58510707388687 0 
141 2 2 48.475382700884175 20.615107073886872 0 
142 2 2 49.445382700884174 21.58510707388687 0 
143 2 2 50.41538270088417 20.615107073886872 0 
144 2 2 49.445382700884174 19.645107073886873 0 
145 2 2 50.41538270088417 18.675107073886874 0 
146 2 2 49.445382700884174 17.705107073886875 0 
147 2 2 48.475382700884175 18.675107073886874 0 
148 2 2 47.50538270088418 17.705107073886875 0 
149 2 2 48.475382700884175 17.705107073886875 0 
150 2 2 49.445382700884174 16.735107073886876 0 
151 2 2 50.41538270088417 15.765107073886876 0 
152 2 2 51.38538270088417 16.735107073886876 0 
153 2 2 52.35538270088417 17.705107073886875 0 
154 2 2 51.38538270088417 18.675107073886874 0 
155 2 2 52.43297033557707 21.033017317137503 0 
156 2 2 53.402970335577066 20.063017317137504 0 
157 2 2 52.43297033557707 19.093017317137505 0 
158 2 2 51.46297033557707 19.093017317137505 0 
159 2 2 50.49297033557707 18.123017317137506 0 
160 2 2 49.52297033557707 18.123017317137506 0 
161 2 2 50.49297033557707 19.093017317137505 0 
162 2 2 51.46297033557707 20.063017317137504 0 
163 2 2 52.43297033557707 20.063017317137504 0 
164 2 2 51.46297033557707 21.033017317137503 0 
165 2 2 50.49297033557707 22.003017317137502 0 
166 2 2 49.52297033557707 21.033017317137503 0 
167 2 2 50.49297033557707 20.063017317137504 0 
168 2 2 49.52297033557707 19.093017317137505 0 
169 2 2 48.55297033557707 18.123017317137506 0 
170 2 2 47.58297033557707 17.153017317137508 0 
171 2 2 46.612970335577074 16.18301731713751 0 
172 2 2 46.612970335577074 15.213017317137508 0 
173 2 2 47.58297033557707 14.243017317137507 0 
174 2 2 48.55297033557707 13.273017317137507 0 
175 2 2 49.52297033557707 14.243017317137507 0 
176 2 2 48.55297033557707 15.213017317137508 0 
177 2 2 47.58297033557707 16.18301731713751 0 
178 2 2 47.58297033557707 15.213017317137508 0 
179 2 2 48.55297033557707 16.18301731713751 0 
180 2 2 48.55297033557707 17.153017317137508 0 
181 2 2 49.52297033557707 16.18301731713751 0 
182 2 2 50.49297033557707 17.153017317137508 0 
183 2 2 51.46297033557707 16.18301731713751 0 
184 2 2 52.43297033557707 15.213017317137508 0 
185 2 2 53.402970335577066 16.18301731713751 0 
186 2 2 54.372970335577065 15.213017317137508 0 
187 2 2 55.342970335577064 16.18301731713751 0 
188 2 2 56.31297033557706 17.153017317137508 0 
189 2 2 57.28297033557706 16.18301731713751 0 
190 2 2 56.31297033557706 15.213017317137508 0 
191 2 2 57.28297033557706 14.243017317137507 0 
192 2 2 58.25297033557706 15.213017317137508 0 
193 2 2 58.25297033557706 16.18301731713751 0 
194 2 2 59.22297033557706 15.213017317137508 0 
195 2 2 60.19297033557706 16.18301731713751 0 
196 2 2 59.22297033557706 17.153017317137508 0 
197 2 2 60.19297033557706 18.123017317137506 0 
198 2 2 59.22297033557706 18.123017317137506 0 
199 2 2 60.19297033557706 17.153017317137508 0 
200 2 2 61.16297033557706 18.123017317137506 0 
201 2 2 60.19297033557706 19.093017317137505 0 
202 2 2 59.22297033557706 20.063017317137504 0 
203 2 2 60.19297033557706 21.033017317137503 0 
204 2 2 59.22297033557706 22.003017317137502 0 
205 3 2 55.26538270088417 18.675107073886874 0 
206 3 2 54.29538270088417 17.705107073886875 0 
207 3 2 53.32538270088417 18.675107073886874 0 
208 3 2 54.29538270088417 19.645107073886873 0 
209 3 2 53.32538270088417 19.645107073886873 0 
210 3 2 52.35538270088417 18.675107073886874 0 
211 3 2 51.38538270088417 19.645107073886873 0 
212 3 2 50.41538270088417 20.615107073886872 0 
213 3 2 49.445382700884174 21.58510707388687 0 
214 3 2 50.41538270088417 22.55510707388687 0 
215 3 2 50.41538270088417 21.58510707388687 0 
216 3 2 51.38538270088417 20.615107073886872 0 
217 3 2 51.38538270088417 21.58510707388687 0 
218 3 2 51.38538270088417 22.55510707388687 0 
219 3 2 52.35538270088417 23.52510707388687 0 
220 3 2 53.32538270088417 22.55510707388687 0 
221 3 2 54.29538270088417 23.52510707388687 0 
222 3 2 53.32538270088417 24.495107073886867 0 
223 3 2 52.35538270088417 25.465107073886866 0 
224 3 2 53.32538270088417 26.435107073886865 0 
225 3 2 53.32538270088417 25.465107073886866 0 
226 3 2 52.35538270088417 24.495107073886867 0 
227 3 2 53.32538270088417 23.52510707388687 0 
228 3 2 54.29538270088417 24.495107073886867 0 
229 3 2 54.29538270088417 25.465107073886866 0 
230 3 2 55.26538270088417 24.495107073886867 0 
231 3 2 55.26538270088417 23.52510707388687 0 
232 3 2 56.235382700884166 22.55510707388687 0 
233 3 2 57.205382700884165 21.58510707388687 0 
234 3 2 56.235382700884166 21.58510707388687 0 
235 3 2 57.205382700884165 22.55510707388687 0 
236 3 2 58.175382700884164 21.58510707388687 0 
237 3 2 57.205382700884165 20.615107073886872 0 
238 3 2 56.235382700884166 20.615107073886872 0 
239 3 2 57.205382700884165 19.645107073886873 0 
240 3 2 58.175382700884164 20.615107073886872 0 
241 3 2 59.14538270088416 21.58510707388687 0 
242 3 2 60.11538270088416 22.55510707388687 0 
243 3 2 59.14538270088416 23.52510707388687 0 
244 3 2 58.175382700884164 22.55510707388687 0 
245 3 2 59.14538270088416 22.55510707388687 0 
246 3 2 60.11538270088416 21.58510707388687 0 
247 3 2 59.14538270088416 20.615107073886872 0 
248 3 2 58.175382700884164 19.645107073886873 0 
249 3 2 57.205382700884165 18.675107073886874 0 
250 3 2 56.235382700884166 19.645107073886873 0 
251 3 2 55.26538270088417 19.645107073886873 0 
252 3 2 55.26538270088417 20.615107073886872 0 
253 3 2 54.29538270088417 20.615107073886872 0 
254 3 2 55.26538270088417 21.58510707388687 0 
255 3 2 52.51130545910786 21.31718328010626 0 
256 3 2 53.48130545910786 20.34718328010626 0 
257 3 2 54.45130545910786 19.377183280106262 0 
258 3 2 55.421305459107856 20.34718328010626 0 
259 3 2 54.45130545910786 21.31718328010626 0 
260 3 2 55.421305459107856 22.28718328010626 0 
261 3 2 56.391305459107855 21.31718328010626 0 
262 3 2 56.391305459107855 20.34718328010626 0 
263 3 2 55.421305459107856 19.377183280106262 0 
264 3 2 54.45130545910786 18.407183280106263 0 
265 3 2 53.48130545910786 17.437183280106265 0 
266 3 2 54.45130545910786 16.467183280106266 0 
267 3 2 55.421305459107856 17.437183280106265 0 
268 3 2 56.391305459107855 18.407183280106263 0 
269 3 2 57.361305459107854 19.377183280106262 0 
270 3 2 58.33130545910785 18.407183280106263 0 
271 3 2 59.30130545910785 17.437183280106265 0 
272 3 2 60.27130545910785 16.467183280106266 0 
273 3 2 61.24130545910785 17.437183280106265 0 
274 3 2 62.21130545910785 18.407183280106263 0 
275 3 2 63.18130545910785 19.377183280106262 0 
276 3 2 64.15130545910785 20.34718328010626 0 
277 3 2 65.12130545910784 21.31718328010626 0 
278 3 2 64.15130545910785 22.28718328010626 0 
279 3 2 63.18130545910785 21.31718328010626 0 
280 3 2 62.21130545910785 20.34718328010626 0 
281 3 2 61.24130545910785 21.31718328010626 0 
282 3 2 60.27130545910785 20.34718328010626 0 
283 3 2 59.30130545910785 21.31718328010626 0 
284 3 2 59.30130545910785 22.28718328010626 0 
285 3 2 58.33130545910785 21.31718328010626 0 
286 3 2 57.361305459107854 20.34718328010626 0 
287 3 2 58.33130545910785 20.34718328010626 0 
288 3 2 57.361305459107854 21.31718328010626 0 
289 3 2 56.391305459107855 22.28718328010626 0 
290 3 2 56.391305459107855 23.257183280106258 0 
291 3 2 57.361305459107854 22.28718328010626 0 
292 3 2 58.33130545910785 23.257183280106258 0 
293 3 2 57.361305459107854 24.227183280106257 0 
294 3 2 56.391305459107855 24.227183280106257 0 
295 3 2 57.361305459107854 23.257183280106258 0 
296 3 2 58.33130545910785 24.227183280106257 0 
297 3 2 57.361305459107854 25.197183280106255 0 
298 3 2 58.33130545910785 26.167183280106254 0 
299 3 2 59.30130545910785 25.197183280106255 0 
300 3 2 60.27130545910785 24.227183280106257 0 
301 3 2 59.30130545910785 23.257183280106258 0 
302 3 2 60.27130545910785 22.28718328010626 0 
303 3 2 61.24130545910785 23.257183280106258 0 
304 3 2 62.21130545910785 24.227183280106257 0 
305 4 2 55.26538270088417 16.735107073886876 0 
306 4 2 54.29538270088417 17.705107073886875 0 
307 4 2 53.32538270088417 16.735107073886876 0 
308 4 2 54.29538270088417 16.735107073886876 0 
309 4 2 53.32538270088417 15.765107073886876 0 
310 4 2 52.35538270088417 14.795107073886875 0 
311 4 2 53.32538270088417 13.825107073886874 0 
312 4 2 53.32538270088417 14.795107073886875 0 
313 4 2 52.35538270088417 13.825107073886874 0 
314 4 2 51.38538270088417 12.855107073886874 0 
315 4 2 51.38538270088417 13.825107073886874 0 
316 4 2 50.41538270088417 14.795107073886875 0 
317 4 2 51.38538270088417 15.765107073886876 0 
318 4 2 50.41538270088417 15.765107073886876 0 
319 4 2 51.38538270088417 16.735107073886876 0 
320 4 2 52.35538270088417 15.765107073886876 0 
321 4 2 51.38538270088417 14.795107073886875 0 
322 4 2 50.41538270088417 13.825107073886874 0 
323 4 2 49.445382700884174 12.855107073886874 0 
324 4 2 49.445382700884174 13.825107073886874 0 
325 4 2 48.475382700884175 12.855107073886874 0 
326 4 2 47.50538270088418 13.825107073886874 0 
327 4 2 46.53538270088418 12.855107073886874 0 
328 4 2 45.56538270088418 13.825107073886874 0 
329 4 2 44.59538270088418 14.795107073886875 0 
330 4 2 43.62538270088418 15.765107073886876 0 
331 4 2 44.59538270088418 16.735107073886876 0 
332 4 2 43.62538270088418 17.705107073886875 0 
333 4 2 44.59538270088418 17.705107073886875 0 
334 4 2 43.62538270088418 18.675107073886874 0 
335 4 2 42.65538270088418 19.645107073886873 0 
336 4 2 43.62538270088418 19.645107073886873 0 
337 4 2 44.59538270088418 18.675107073886874 0 
338 4 2 44.59538270088418 19.645107073886873 0 
339 4 2 45.56538270088418 18.675107073886874 0 
340 4 2 45.56538270088418 19.645107073886873 0 
341 4 2 44.59538270088418 20.615107073886872 0 
342 4 2 43.62538270088418 20.615107073886872 0 
343 4 2 42.65538270088418 20.615107073886872 0 
344 4 2 41.68538270088418 21.58510707388687 0 
345 4 2 40.715382700884184 20.615107073886872 0 
346 4 2 39.745382700884186 21.58510707388687 0 
347 4 2 38.77538270088419 20.615107073886872 0 
348 4 2 37.80538270088419 19.645107073886873 0 
349 4 2 38.77538270088419 19.645107073886873 0 
350 4 2 39.745382700884186 20.615107073886872 0 
351 4 2 40.715382700884184 21.58510707388687 0 
352 4 2 39.745382700884186 22.55510707388687 0 
353 4 2 38.77538270088419 21.58510707388687 0 
354 4 2 37.80538270088419 22.55510707388687 0 
355 4 2 36.019798932914725 24.327794188607815 0 
356 4 2 36.989798932914724 23.357794188607816 0 
357 4 2 36.019798932914725 22.387794188607817 0 
358 4 2 36.989798932914724 22.387794188607817 0 
359 4 2 36.989798932914724 21.417794188607818 0 
360 4 2 37.95979893291472 22.387794188607817 0 
361 4 2 38.92979893291472 23.357794188607816 0 
362 4 2 37.95979893291472 24.327794188607815 0 
363 4 2 36.989798932914724 25.297794188607813 0 
364 4 2 36.019798932914725 26.267794188607812 0 
365 4 2 35.049798932914726 25.297794188607813 0 
366 4 2 34.07979893291473 24.327794188607815 0 
367 4 2 35.049798932914726 23.357794188607816 0 
368 4 2 34.07979893291473 22.387794188607817 0 
369 4 2 35.049798932914726 21.417794188607818 0 
370 4 2 34.07979893291473 20.44779418860782 0 
371 4 2 33.10979893291473 21.417794188607818 0 
372 4 2 32.13979893291473 22.387794188607817 0 
373 4 2 33.10979893291473 23.357794188607816 0 
374 4 2 33.10979893291473 24.327794188607815 0 
375 4 2 34.07979893291473 23.357794188607816 0 
376 4 2 35.049798932914726 22.387794188607817 0 
377 4 2 34.07979893291473 21.417794188607818 0 
378 4 2 35.049798932914726 20.44779418860782 0 
379 4 2 36.019798932914725 21.417794188607818 0 
380 4 2 36.989798932914724 20.44779418860782 0 
381 4 2 37.95979893291472 21.417794188607818 0 
382 4 2 38.92979893291472 22.387794188607817 0 
383 4 2 39.89979893291472 21.417794188607818 0 
384 4 2 39.89979893291472 20.44779418860782 0 
385 4 2 40.86979893291472 21.417794188607818 0 
386 4 2 41.83979893291472 22.387794188607817 0 
387 4 2 41.83979893291472 23.357794188607816 0 
388 4 2 40.86979893291472 22.387794188607817 0 
389 4 2 41.83979893291472 21.417794188607818 0 
390 4 2 40.86979893291472 20.44779418860782 0 
391 4 2 41.83979893291472 19.47779418860782 0 
392 4 2 40.86979893291472 18.50779418860782 0 
393 4 2 41.83979893291472 18.50779418860782 0 
394 4 2 40.86979893291472 17.537794188607823 0 
395 4 2 41.83979893291472 16.567794188607824 0 
396 4 2 42.80979893291472 17.537794188607823 0 
397 4 2 43.779798932914716 16.567794188607824 0 
398 4 2 44.749798932914715 17.537794188607823 0 
399 4 2 45.71979893291471 16.567794188607824 0 
400 4 2 44.749798932914715 15.597794188607823 0 
401 4 2 45.71979893291471 14.627794188607822 0 
402 4 2 46.68979893291471 15.597794188607823 0 
403 4 2 47.65979893291471 16.567794188607824 0 
404 4 2 47.65979893291471 17.537794188607823 0 
405 5 2 91.15038531846406 16.105777362506043 0 
406 5 2 92.12038531846406 17.07577736250604 0 
407 5 2 91.15038531846406 17.07577736250604 0 
408 5 2 92.12038531846406 16.105777362506043 0 
409 5 2 93.09038531846406 17.07577736250604 0 
410 5 2 0.12674165569163165 16.105777362506043 0 
411 5 2 1.0967416556916305 17.07577736250604 0 
412 5 2 2.0667416556916294 18.04577736250604 0 
413 5 2 1.0967416556916305 19.01577736250604 0 
414 5 2 0.12674165569163165 18.04577736250604 0 
415 5 2 0.12674165569163165 19.01577736250604 0 
416 5 2 93.09038531846406 18.04577736250604 0 
417 5 2 92.12038531846406 18.04577736250604 0 
418 5 2 91.15038531846406 18.04577736250604 0 
419 5 2 92.12038531846406 19.01577736250604 0 
420 5 2 93.09038531846406 19.985777362506038 0 
421 5 2 92.12038531846406 20.955777362506037 0 
422 5 2 91.15038531846406 19.985777362506038 0 
423 5 2 91.15038531846406 20.955777362506037 0 
424 5 2 90.18038531846406 19.985777362506038 0 
425 5 2 91.15038531846406 19.01577736250604 0 
426 5 2 92.12038531846406 19.985777362506038 0 
427 5 2 93.09038531846406 19.01577736250604 0 
428 5 2 0.12674165569163165 19.985777362506038 0 
429 5 2 1.0967416556916305 19.985777362506038 0 
430 5 2 2.0667416556916294 19.01577736250604 0 
431 5 2 3.0367416556916282 18.04577736250604 0 
432 5 2 4.006741655691627 19.01577736250604 0 
433 5 2 4.976741655691626 18.04577736250604 0 
434 5 2 5.946741655691625 17.07577736250604 0 
435 5 2 5.946741655691625 18.04577736250604 0 
436 5 2 6.916741655691624 19.01577736250604 0 
437 5 2 7.8867416556916226 19.985777362506038 0 
438 5 2 8.856741655691621 19.01577736250604 0 
439 5 2 7.8867416556916226 19.01577736250604 0 
440 5 2 6.916741655691624 19.985777362506038 0 
441 5 2 5.946741655691625 19.01577736250604 0 
442 5 2 4.976741655691626 19.985777362506038 0 
443 5 2 4.006741655691627 20.955777362506037 0 
444 5 2 3.0367416556916282 21.925777362506036 0 
445 5 2 2.0667416556916294 22.895777362506035 0 
446 5 2 3.0367416556916282 23.865777362506034 0 
447 5 2 4.006741655691627 24.835777362506033 0 
448 5 2 3.0367416556916282 24.835777362506033 0 
449 5 2 2.0667416556916294 25.80577736250603 0 
450 5 2 1.0967416556916305 24.835777362506033 0 
451 5 2 0.12674165569163165 25.80577736250603 0 
452 5 2 0.12674165569163165 24.835777362506033 0 
453 5 2 1.0967416556916305 23.865777362506034 0 
454 5 2 2.0667416556916294 24.835777362506033 0 
455 5 2 2.1543964031079526 23.687465400237453 0 
456 5 2 1.1843964031079537 24.657465400237452 0 
457 5 2 0.21439640310795482 23.687465400237453 0 
458 5 2 93.17804006588038 22.717465400237455 0 
459 5 2 92.20804006588038 21.747465400237456 0 
460 5 2 91.23804006588038 22.717465400237455 0 
461 5 2 92.20804006588038 23.687465400237453 0 
462 5 2 91.23804006588038 24.657465400237452 0 
463 5 2 92.20804006588038 25.62746540023745 0 
464 5 2 93.17804006588038 26.59746540023745 0 
465 5 2 92.20804006588038 27.56746540023745 0 
466 5 2 91.23804006588038 27.56746540023745 0 
467 5 2 92.20804006588038 26.59746540023745 0 
468 5 2 91.23804006588038 25.62746540023745 0 
469 5 2 90.26804006588038 26.59746540023745 0 
470 5 2 91.23804006588038 26.59746540023745 0 
471 5 2 90.26804006588038 25.62746540023745 0 
472 5 2 89.29804006588039 26.59746540023745 0 
473 5 2 88.32804006588039 25.62746540023745 0 
474 5 2 87.35804006588039 24.657465400237452 0 
475 5 2 86.38804006588039 25.62746540023745 0 
476 5 2 85.41804006588039 24.657465400237452 0 
477 5 2 84.44804006588039 23.687465400237453 0 
478 5 2 85.41804006588039 23.687465400237453 0 
479 5 2 84.44804006588039 22.717465400237455 0 
480 5 2 84.44804006588039 21.747465400237456 0 
481 5 2 85.41804006588039 22.717465400237455 0 
482 5 2 86.38804006588039 23.687465400237453 0 
483 5 2 87.35804006588039 23.687465400237453 0 
484 5 2 86.38804006588039 22.717465400237455 0 
485 5 2 87.35804006588039 22.717465400237455 0 
486 5 2 86.38804006588039 21.747465400237456 0 
487 5 2 85.41804006588039 20.777465400237457 0 
488 5 2 85.41804006588039 19.807465400237458 0 
489 5 2 86.38804006588039 20.777465400237457 0 
490 5 2 85.41804006588039 21.747465400237456 0 
491 5 2 84.44804006588039 20.777465400237457 0 
492 5 2 83.47804006588039 20.777465400237457 0 
493 5 2 82.5080400658804 19.807465400237458 0 
494 5 2 83.47804006588039 18.83746540023746 0 
495 5 2 84.44804006588039 17.86746540023746 0 
496 5 2 85.41804006588039 16.89746540023746 0 
497 5 2 85.41804006588039 17.86746540023746 0 
498 5 2 86.38804006588039 16.89746540023746 0 
499 5 2 87.35804006588039 17.86746540023746 0 
500 5 2 86.38804006588039 18.83746540023746 0 
501 5 2 86.38804006588039 17.86746540023746 0 
502 5 2 87.35804006588039 18.83746540023746 0 
503 5 2 86.38804006588039 19.807465400237458 0 
504 5 2 85.41804006588039 18.83746540023746 0 
505 6 2 91.15038531846406 14.165777362506043 0 
506 6 2 90.18038531846406 13.195777362506043 0 
507 6 2 89.21038531846406 12.225777362506042 0 
508 6 2 88.24038531846406 13.195777362506043 0 
509 6 2 89.21038531846406 14.165777362506043 0 
510 6 2 90.18038531846406 14.165777362506043 0 
511 6 2 89.21038531846406 15.135777362506044 0 
512 6 2 90.18038531846406 16.105777362506043 0 
513 6 2 91.15038531846406 17.07577736250604 0 
514 6 2 92.12038531846406 16.105777362506043 0 
515 6 2 93.09038531846406 15.135777362506042 0 
516 6 2 92.12038531846406 14.165777362506041 0 
517 6 2 91.15038531846406 15.135777362506042 0 
518 6 2 90.18038531846406 15.135777362506042 0 
519 6 2 89.21038531846406 16.105777362506043 0 
520 6 2 90.18038531846406 17.07577736250604 0 
521 6 2 91.15038531846406 18.04577736250604 0 
522 6 2 92.12038531846406 17.07577736250604 0 
523 6 2 93.09038531846406 16.105777362506043 0 
524 6 2 93.09038531846406 17.07577736250604 0 
525 6 2 0.12674165569163165 16.105777362506043 0 
526 6 2 1.0967416556916305 15.135777362506042 0 
527 6 2 2.0667416556916294 16.105777362506043 0 
528 6 2 1.0967416556916305 17.07577736250604 0 
529 6 2 2.0667416556916294 18.04577736250604 0 
530 6 2 3.0367416556916282 19.01577736250604 0 
531 6 2 2.0667416556916294 19.985777362506038 0 
532 6 2 3.0367416556916282 19.985777362506038 0 
533 6 2 2.0667416556916294 20.955777362506037 0 
534 6 2 1.0967416556916305 21.925777362506036 0 
535 6 2 0.12674165569163165 22.895777362506035 0 
536 6 2 93.09038531846406 23.865777362506034 0 
537 6 2 92.12038531846406 24.835777362506033 0 
538 6 2 93.09038531846406 25.80577736250603 0 
539 6 2 92.12038531846406 26.77577736250603 0 
540 6 2 93.09038531846406 27.74577736250603 0 
541 6 2 0.12674165569163165 26.77577736250603 0 
542 6 2 0.12674165569163165 27.74577736250603 0 
543 6 2 93.09038531846406 28.715777362506028 0 
544 6 2 0.12674165569163165 29.685777362506027 0 
545 6 2 1.0967416556916305 28.715777362506028 0 
546 6 2 2.0667416556916294 29.685777362506027 0 
547 6 2 1.0967416556916305 30.655777362506026 0 
548 6 2 0.12674165569163165 31.625777362506025 0 
549 6 2 93.09038531846406 30.655777362506026 0 
550 6 2 92.12038531846406 29.685777362506027 0 
551 6 2 91.15038531846406 30.655777362506026 0 
552 6 2 90.18038531846406 31.625777362506025 0 
553 6 2 91.15038531846406 31.625777362506025 0 
554 6 2 92.12038531846406 30.655777362506026 0 
555 6 2 93.2076520328011 29.48048798103468 0 
556 6 2 0.24400837002866638 28.510487981034682 0 
557 6 2 93.2076520328011 27.540487981034683 0 
558 6 2 92.2376520328011 28.510487981034682 0 
559 6 2 91.2676520328011 27.540487981034683 0 
560 6 2 90.2976520328011 26.570487981034685 0 
561 6 2 91.2676520328011 25.600487981034686 0 
562 6 2 90.2976520328011 24.630487981034687 0 
563 6 2 90.2976520328011 23.660487981034688 0 
564 6 2 89.3276520328011 24.630487981034687 0 
565 6 2 88.3576520328011 23.660487981034688 0 
566 6 2 87.3876520328011 24.630487981034687 0 
567 6 2 86.4176520328011 25.600487981034686 0 
568 6 2 87.3876520328011 26.570487981034685 0 
569 6 2 88.3576520328011 26.570487981034685 0 
570 6 2 89.3276520328011 27.540487981034683 0 
571 6 2 88.3576520328011 28.510487981034682 0 
572 6 2 87.3876520328011 27.540487981034683 0 
573 6 2 86.4176520328011 26.570487981034685 0 
574 6 2 87.3876520328011 25.600487981034686 0 
575 6 2 88.3576520328011 24.630487981034687 0 
576 6 2 87.3876520328011 23.660487981034688 0 
577 6 2 86.4176520328011 22.69048798103469 0 
578 6 2 87.3876520328011 21.72048798103469 0 
579 6 2 87.3876520328011 22.69048798103469 0 
580 6 2 88.3576520328011 21.72048798103469 0 
581 6 2 89.3276520328011 21.72048798103469 0 
582 6 2 90.2976520328011 20.75048798103469 0 
583 6 2 89.3276520328011 19.780487981034693 0 
584 6 2 88.3576520328011 18.810487981034694 0 
585 6 2 87.3876520328011 18.810487981034694 0 
586 6 2 88.3576520328011 17.840487981034695 0 
587 6 2 89.3276520328011 18.810487981034694 0 
588 6 2 90.2976520328011 17.840487981034695 0 
589 6 2 91.2676520328011 18.810487981034694 0 
590 6 2 90.2976520328011 19.780487981034693 0 
591 6 2 89.3276520328011 20.75048798103469 0 
592 6 2 88.3576520328011 19.780487981034693 0 
593 6 2 88.3576520328011 20.75048798103469 0 
594 6 2 87.3876520328011 19.780487981034693 0 
595 6 2 87.3876520328011 20.75048798103469 0 
596 6 2 86.4176520328011 19.780487981034693 0 
597 6 2 85.4476520328011 18.810487981034694 0 
598 6 2 84.4776520328011 17.840487981034695 0 
599 6 2 83.5076520328011 18.810487981034694 0 
600 6 2 84.4776520328011 18.810487981034694 0 
601 6 2 83.5076520328011 17.840487981034695 0 
602 6 2 84.4776520328011 16.870487981034696 0 
603 6 2 85.4476520328011 15.900487981034695 0 
604 6 2 86.4176520328011 16.870487981034696 0 
605 7 2 27.29016223245503 38.08159587342365 0 
606 7 2 26.320162232455033 39.05159587342365 0 
607 7 2 25.350162232455034 38.08159587342365 0 
608 7 2 26.320162232455033 37.11159587342365 0 
609 7 2 26.320162232455033 38.08159587342365 0 
610 7 2 27.29016223245503 37.11159587342365 0 
611 7 2 28.26016223245503 37.11159587342365 0 
612 7 2 29.23016223245503 38.08159587342365 0 
613 7 2 30.20016223245503 37.11159587342365 0 
614 7 2 31.170162232455027 36.141595873423654 0 
615 7 2 30.20016223245503 35.171595873423655 0 
616 7 2 29.23016223245503 34.201595873423656 0 
617 7 2 30.20016223245503 33.23159587342366 0 
618 7 2 30.20016223245503 34.201595873423656 0 
619 7 2 31.170162232455027 33.23159587342366 0 
620 7 2 32.140162232455026 32.26159587342366 0 
621 7 2 33.110162232455025 31.29159587342366 0 
622 7 2 32.140162232455026 30.32159587342366 0 
623 7 2 33.110162232455025 29.351595873423662 0 
624 7 2 34.080162232455024 28.381595873423663 0 
625 7 2 35.05016223245502 27.411595873423664 0 
626 7 2 34.080162232455024 27.411595873423664 0 