20241016B1C1

1443 atoms
1490 bonds
                   
3 atom types
1 bond types

0 12.084372700534999 xlo xhi
0 12.084372700534999 ylo yhi
0 12.084372700534999 zlo zhi

Masses

1 1
2 1
3 1

Atoms # molecular

1 1 1 7.900324979878825 10.571933066744563 5.483865594524117 
2 1 1 2.4914756070594994 7.368174430990455 2.1883449105574027 
3 1 1 4.568462466138446 9.79637943496262 10.232666393095583 
4 1 1 3.4317099256399133 5.141645523003177 8.689211927613705 
5 1 1 7.628163825931085 2.1662183442580694 1.3436054950880083 
6 1 1 10.747694982557325 2.472254375139876 10.460535488424465 
7 1 1 0.5718743186289933 6.238615866282427 7.828818845213328 
8 1 1 9.967593489933257 9.168830504088078 10.616063615585714 
9 1 1 5.814388903732802 0.6476077031757732 0.4734067683141737 
10 1 1 11.700068349819121 10.476077727450967 3.9065008262271683 
11 1 1 0.9332750404509873 7.89186725979035 2.8010298593286445 
12 1 1 11.1696128402798 2.7664885538955715 11.137917710422634 
13 1 1 11.541555098837163 9.717165553459248 7.6004261852530535 
14 1 1 1.887461225735193 1.6919794709548337 8.714062302107726 
15 1 1 11.07864181748377 2.975321295462383 7.042041365614078 
16 1 1 3.6865889148182998 5.57605562979552 1.7655947020949647 
17 1 1 0.05120357847622621 11.641939242059742 6.958516676120674 
18 1 1 0.47960292595379744 2.6124593972448653 1.351073595056696 
19 1 1 2.3615170030706536 7.376802948491003 6.56579180946478 
20 1 1 0.198896243740621 0.1331321604300579 9.141392428026752 
21 1 1 0.21852275233966356 9.947948041312202 10.40525685096625 
22 1 1 5.732651409977761 2.986281794123641 0.7173344841148855 
23 1 1 6.083626633792346 3.25773466075005 0.2749482578853254 
24 1 1 9.552577764890604 5.994499431828108 0.1941512185927783 
25 1 1 6.155771835050555 11.667281318103996 2.2374242353453644 
26 1 1 2.7557674261982013 2.842345181977799 5.998778492360915 
27 1 1 9.441254520569773 10.485170141160898 1.2741159101179416 
28 1 1 0.5407668171956361 6.538182079799117 2.8110002672441388 
29 1 1 8.296904524328639 0.06792255515865252 5.53429562208893 
30 1 1 10.474120163062688 0.1902861837522126 4.516781332957267 
31 1 1 1.7425469974772059 7.704463268189168 4.043908975063835 
32 1 1 2.7877731706492783 0.835816235688029 4.866008850588264 
33 1 1 2.732636882790751 11.642864720535103 7.109235230650471 
34 1 1 4.213257192347301 8.904545357138607 11.867705124525967 
35 1 1 11.81744564294475 9.90926118905201 1.904131988207862 
36 1 1 6.202994261220438 3.2165121153169003 4.267271212831999 
37 1 1 7.777008193311337 9.538146526586567 4.638841329021516 
38 1 1 3.19528140344478 9.384122759643134 3.7850619490546835 
39 1 1 11.351160651619368 6.689775418626842 8.193476304809156 
40 1 1 6.446302083203516 10.750882795390401 1.4109396255108695 
41 1 1 0.7936850505653046 6.670411583003857 7.357536809622633 
42 1 1 9.040815072352354 9.019807979916427 5.575571317032164 
43 1 1 2.4853933496476084 4.664187400497403 5.573898912554197 
44 1 1 11.418276370296534 0.2117741323096287 0.4165705195171044 
45 1 1 5.731736460176459 3.476387797146458 11.438074490317511 
46 1 1 11.234965361295462 5.421915794467364 2.4278195397488576 
47 1 1 7.571939541146206 10.26908857100441 3.512127354657571 
48 1 1 1.9705868298007574 7.357585017265403 11.603531089105843 
49 1 1 0.7219461204531498 9.278331501662121 5.834516139538392 
50 1 1 7.5188454699683644 5.057247475323135 5.6600919412905375 
51 1 1 11.877482082797426 11.070407460855078 2.1114088886321607 
52 1 1 10.901204520137496 9.153976876676087 5.817726883377009 
53 1 1 0.9403820927419194 6.295491011029629 11.620431169089619 
54 1 1 0.7451121234400239 10.752928322713839 8.633706343633813 
55 1 1 7.367349099681256 1.0366440072144367 8.105254018718409 
56 1 1 4.05894022246684 2.668062339753665 7.6761206733576985 
57 1 1 8.042527073173684 8.345876069396473 6.895023170357947 
58 1 1 9.231529798015545 5.010057030211124 9.194666173613903 
59 1 1 0.0761726136322323 2.3988382029695887 5.004353599231748 
60 1 1 0.125302483029716 1.5904148491746546 5.57010194435023 
61 1 1 8.597831519548803 7.04967105493566 3.2373575291837597 
62 1 1 7.321210947810442 1.8891451970660755 4.2202902882568205 
63 1 1 7.271150377493271 0.1734361467212428 0.7075233869870646 
64 1 1 1.4203241184638316 7.079080094043678 1.9714305334361706 
65 1 1 3.5995499969649596 3.723058025689883 5.97357892674306 
66 1 1 7.99165914483855 10.14173864050264 6.6088054189330805 
67 1 1 8.040646192525942 7.429612813278101 0.9867168133064179 
68 1 1 10.282126355681537 2.223389154131534 9.036521793705147 
69 1 1 6.221188430852485 8.683676305779617 0.21306749999507357 
70 1 1 9.368524433619273 4.521233238369404 0.39112452663595476 
71 1 1 0.8240031396739343 4.359717662913423 7.180914731434393 
72 1 1 11.883817589141195 4.992196297766834 7.537867599822357 
73 1 1 6.552838859462166 7.444495977605872 8.72261638318212 
74 1 1 3.5592306185928715 10.255239411415474 3.2861451249464464 
75 1 1 6.565413197503579 11.534471906081363 7.445978796514289 
76 1 1 5.702740702545386 10.465587086703502 8.761921568637092 
77 1 1 6.992138400012082 11.916935712508877 5.07789932156229 
78 1 1 11.417039301133896 0.7838742561018175 4.683220070787104 
79 1 1 5.378868310233744 9.9715203268054 1.5758065216521102 
80 1 1 9.630272416839254 2.534997332039238 3.2617408452288643 
81 1 1 1.4752464341323022 1.1528770536405013 1.9360668014831375 
82 1 1 1.4829664116200723 6.258090590706098 1.6732376560713726 
83 1 1 11.217355412834376 1.7923398726372046 7.93697871732576 
84 1 1 6.0686312619170755 6.065114528493578 12.053836481902344 
85 1 1 8.96145208161136 4.28676705540824 9.928239098736464 
86 1 1 3.031281200638842 9.768021132754058 9.487443930226638 
87 1 1 9.8932514014374 7.077608393643053 10.630507651644702 
88 1 1 10.245010937947027 5.4848852798067815 7.265455752722595 
89 1 1 6.7638968950170435 6.5303857799399285 5.284972291551776 
90 1 1 1.677904152727069 4.585898542758056 2.1694713152893574 
91 1 1 2.0686663942226513 8.056734573077904 7.123549657682364 
92 1 1 10.921883060448504 5.1487135918686935 2.3194040230806876 
93 1 1 1.7107391556409048 8.620499699690722 7.535585597957384 
94 1 1 8.30999510787521 11.010422672248174 9.027089643927193 
95 1 1 10.099678111309625 2.2770209112085804 5.290812631600278 
96 1 1 6.459853243749706 1.1780485441419228 7.48376946244033 
97 1 1 7.3013804077734195 9.725188887073259 10.645217650758921 
98 1 1 7.54255961131266 1.3142723610534603 1.2018698084325021 
99 1 1 0.11463277267197264 2.5117687822429366 3.0738934197821863 
100 1 3 4.179994737056344 10.261752138890982 11.707801256797932 
101 1 3 1.1499339946111522 8.35735516600568 10.524640236751171 
102 1 3 8.866808625950519 9.643818792661031 9.41917502612096 
103 2 2 8.332195571999849 11.452267610816756 5.680076914723134 
104 2 2 8.764066164120873 0.2482294543539485 5.876288234922152 
105 2 2 9.195936756241899 1.1285639984261415 6.072499555121169 
106 2 2 9.627807348362923 2.0088985424983328 6.2687108753201874 
107 2 2 10.05967794048395 2.889233086570524 6.464922195519201 
108 2 2 9.360824991887876 2.2014063103656927 6.661133515718219 
109 2 2 8.6619720432918 1.5135795341608596 6.857344835917236 
110 2 2 7.9631190946957275 0.8257527579560282 7.0535561561162545 
111 2 2 7.264266146099653 0.13792598175119508 7.249767476315272 
112 3 2 7.079236076075346 10.220408472374947 5.034150716402347 
113 3 2 6.258147172271867 9.868883878005333 4.584435838280577 
114 3 2 5.4370582684683875 9.517359283635717 4.134720960158807 
115 3 2 4.615969364664909 9.165834689266102 3.685006082037037 
116 3 2 3.79488046086143 8.814310094896486 3.235291203915267 
117 3 2 4.6440336071943324 8.53737063857281 2.7855763257934973 
118 3 2 5.493186753527235 8.260431182249132 2.3358614476717277 
119 3 2 6.3423398998601375 7.983491725925456 1.8861465695499575 
120 3 2 7.19149304619304 7.7065522696017785 1.4364316914281878 
121 4 2 3.4693171513636734 7.165712713308297 2.2415911978084284 
122 4 2 4.447158695667847 6.96325099562614 2.294837485059454 
123 4 2 5.425000239972021 6.760789277943983 2.3480837723104795 
124 4 2 6.402841784276195 6.558327560261826 2.4013300595615052 
125 4 2 6.6206560856130166 7.147267939686704 2.6252733650217848 
126 4 2 7.0562846882866594 8.325148698536461 3.073159975942344 
127 4 2 6.182021170863212 8.807671376756215 3.1264062631933696 
128 4 2 5.307757653439765 9.290194054975967 3.179652550444395 
129 4 2 4.433494136016319 9.77271673319572 3.2328988376954206 
130 5 2 2.6492919309385914 8.353740349360596 2.249613405434527 
131 5 2 2.8071082548176833 9.339306267730738 2.310881900311651 
132 5 2 2.964924578696775 10.32487218610088 2.3721503951887755 
133 5 2 3.122740902575867 11.310438104471022 2.4334188900658997 
134 5 2 3.28055722645496 0.21163132230616455 2.494687384943023 
135 5 2 2.8111007892541653 11.415176670231 2.5559558798201474 
136 5 2 2.341644352053371 10.534349317620839 2.6172243746972716 
137 5 2 1.8721879148525762 9.653521965010675 2.678492869574396 
138 5 2 1.4027314776517816 8.772694612400512 2.73976136445152 
139 6 2 4.3965704377162185 10.778672448972824 10.158144146808688 
140 6 2 4.2246784092939915 11.760965462983025 10.083621900521793 
141 6 2 4.052786380871764 0.658885776458229 10.0090996542349 
142 6 2 3.880894352449536 1.6411787904684303 9.934577407948005 
143 6 2 3.7090023240273116 2.6234718044786334 9.86005516166111 
144 6 2 3.5734580993496174 1.6355071300267188 9.785532915374215 
145 6 2 3.4379138746719238 0.6475424555748042 9.71101066908732 
146 6 2 3.3023696499942297 11.743950481657887 9.636488422800428 
147 6 2 3.166825425316536 10.755985807205972 9.561966176513533 
148 7 2 3.747314278933467 10.361232099609818 10.314257580676943 
149 7 2 2.926166091728487 10.926084764257014 10.395848768258302 
150 7 2 2.105017904523507 11.49093742890421 10.477439955839662 
151 7 2 1.2838697173185274 12.055790093551408 10.559031143421022 
152 7 2 0.8302324539060184 11.629931361056617 10.798409541874149 
153 7 2 12.007330627616 10.778213896067033 11.277166338780404 
154 7 2 0.4348651527609395 9.923056676366626 11.358757526361764 
155 7 2 0.9467723784408788 9.067899456666218 11.440348713943123 
156 7 2 1.458679604120818 8.21274223696581 11.521939901524483 
157 8 2 3.919754531767875 9.039413998126935 10.154044873644319 
158 8 2 3.2710465973973033 8.28244856129125 10.075423354193054 
159 8 2 2.6223386630267314 7.5254831244555636 9.99680183474179 
160 8 2 1.9736307286561598 6.7685176876198785 9.918180315290526 
161 8 2 2.3595760247902207 6.311095214506294 9.624487697189409 
162 8 2 3.1314666170583423 5.396250268279127 9.037102460987176 
163 8 2 3.986809677659298 5.908311695610813 8.958480941535912 
164 8 2 4.842152738260254 6.420373122942499 8.879859422084648 
165 8 2 5.69749579886121 6.932434550274186 8.801237902633384 
166 9 2 2.9117100745011606 5.936974639154273 8.377680626107754 
167 9 2 2.391710223362408 6.732303755305368 8.066149324601803 
168 9 2 1.8717103722236552 7.527632871456465 7.754618023095851 
169 9 2 1.3517105210849025 8.32296198760756 7.443086721589901 
170 9 2 0.8317106699461507 9.118291103758658 7.131555420083953 
171 9 2 1.1624472058864423 8.227470363106407 6.820024118578002 
172 9 2 1.4931837418267337 7.336649622454156 6.50849281707205 
173 9 2 1.8239202777670251 6.445828881801905 6.1969615155661 
174 9 2 2.1546568137073168 5.555008141149655 5.885430214060149 
175 10 2 3.1230103520532695 4.231073109967795 8.964098183884085 
176 10 2 2.8143107784666257 3.3205006969324127 9.238984440154466 
177 10 2 2.505611204879982 2.40992828389703 9.513870696424846 
178 10 2 2.196911631293338 1.4993558708616481 9.788756952695227 
179 10 2 1.888212057706696 0.5887834578262643 10.06364320896561 
180 10 2 2.6569169382006486 1.166304325690303 10.33852946523599 
181 10 2 3.4256218186946015 1.7438251935543418 10.613415721506371 
182 10 2 4.194326699188554 2.3213460614183807 10.88830197777675 
183 10 2 4.963031579682507 2.8988669292824194 11.163188234047132 
184 11 2 2.4691531681952643 5.174814303541235 8.420168584088426 
185 11 2 1.5065964107506151 5.207983084079293 8.151125240563147 
186 11 2 0.5440396533059659 5.241151864617352 7.882081897037868 
187 11 2 11.665855596396316 5.27432064515541 7.61303855351259 
188 11 2 10.703298838951667 5.307489425693467 7.34399520998731 
189 11 2 11.530667096507974 4.814460576950333 7.074951866462031 
190 11 2 0.2736626535292812 4.3214317282072 6.805908522936752 
191 11 2 1.1010309110855876 3.828402879464066 6.536865179411473 
192 11 2 1.9283991686418944 3.3353740307209323 6.267821835886194 
193 12 2 6.699825054667756 1.8106114353444658 1.4519145533527908 
194 12 2 5.7714862834044265 1.4550045264308622 1.5602236116175736 
195 12 2 4.843147512141098 1.0993976175172584 1.6685326698823562 
196 12 2 4.956155199129984 0.7448154090277115 2.3766998253648013 
197 12 2 5.069162886118871 0.3902332005381647 3.084866980847247 
198 12 2 5.182170573107758 0.03565099204861788 3.793034136329692 
199 12 2 5.408185947085531 11.410859275604523 5.209368447294582 
200 12 2 6.3710921394999005 11.658004602300899 5.317677505559365 
201 12 2 7.33399833191427 11.905149928997275 5.425986563824147 
202 13 2 6.628368051366372 2.1806238679843246 1.3294319264224577 
203 13 2 5.628572276801658 2.19502939171058 1.315258357756907 
204 13 2 4.628776502236945 2.2094349154368356 1.3010847890913566 
205 13 2 3.6289807276722312 2.223840439163091 1.286911220425806 
206 13 2 2.629184953107517 2.238245962889346 1.272737651760255 
207 13 2 3.6118598847485455 2.053451242522169 1.2585640830947045 
208 13 2 4.594534816389574 1.8686565221549918 1.2443905144291538 
209 13 2 5.577209748030603 1.6838618017878146 1.2302169457636034 
210 13 2 6.559884679671631 1.4990670814206375 1.2160433770980528 
211 14 2 8.043179361948441 3.027777333865346 1.6359720668624074 
212 14 2 8.458194897965797 3.8893363234726226 1.9283386386368067 
213 14 2 8.873210433983154 4.7508953130799 2.220705210411206 
214 14 2 9.288225970000509 5.612454302687176 2.5130717821856052 
215 14 2 9.703241506017866 6.474013292294453 2.8054383539600036 
216 14 2 9.00319205705838 5.822513056898942 3.097804925734403 
217 14 2 8.303142608098895 5.171012821503432 3.3901714975088018 
218 14 2 7.603093159139409 4.519512586107922 3.682538069283201 
219 14 2 6.903043710179923 3.868012350712411 3.9749046410576003 
220 15 2 11.408941662653241 3.2116653412746365 10.33394855694341 
221 15 2 12.070188342749157 3.951076307409397 10.207361625462353 
222 15 2 0.6470623223100738 4.690487273544158 10.080774693981297 
223 15 2 1.3083090024059896 5.429898239678918 9.95418776250024 
224 15 2 1.9695556825019054 6.169309205813677 9.827600831019184 
225 15 2 1.0050759654976336 5.9374587706931665 9.701013899538129 
226 15 2 0.04059624849336174 5.705608335572656 9.574426968057072 
227 15 2 11.160489232024089 5.473757900452146 9.447840036576016 
228 15 2 10.196009515019817 5.241907465331635 9.321253105094959 
229 16 2 1.5400467426840545 6.478332681537164 7.756860483757042 
230 16 2 2.508219166739116 6.718049496791899 7.684902122300756 
231 16 2 3.476391590794177 6.957766312046635 7.612943760844471 
232 16 2 4.444564014849239 7.19748312730137 7.540985399388186 
233 16 2 5.4127364389043 7.437199942556107 7.469027037931899 
234 16 2 4.87671652768159 8.278332898151906 7.397068676475613 
235 16 2 4.340696616458881 9.119465853747705 7.3251103150193275 
236 16 2 3.8046767052361705 9.960598809343505 7.253151953563043 
237 16 2 3.2686567940134608 10.801731764939303 7.181193592106757 
238 17 2 8.982916404956242 8.994448876559858 10.617508019191613 
239 17 2 7.998239319979227 8.820067249031636 10.618952422797513 
240 17 2 7.013562235002211 8.645685621503416 10.620396826403411 
241 17 2 6.028885150025196 8.471303993975194 10.621841230009311 
242 17 2 5.04420806504818 8.29692236644698 10.623285633615208 
243 17 2 6.0140167323260245 8.053059571886195 10.624730037221106 
244 17 2 6.983825399603868 7.809196777325409 10.626174440827006 
245 17 2 7.953634066881712 7.565333982764624 10.627618844432904 
246 17 2 8.923442734159556 7.321471188203838 10.629063248038804 
247 18 2 10.754089223702858 10.22107050536186 3.7062639424252373 
248 18 2 9.808110097586594 9.966063283272753 3.5060270586233067 
249 18 2 8.862130971470332 9.711056061183646 3.3057901748213756 
250 18 2 7.916151845354069 9.456048839094539 3.1055532910194446 
251 18 2 6.970172719237805 9.201041617005432 2.9053164072175166 
252 18 2 7.939627303979194 9.342685531414748 2.7050795234155856 
253 18 2 8.909081888720582 9.484329445824063 2.504842639613655 
254 18 2 9.87853647346197 9.62597336023338 2.304605755811724 
255 18 2 10.84799105820336 9.767617274642694 2.104368872009793 
256 19 2 10.756042936302803 10.16686565839482 3.7915925367726624 
257 19 2 9.812017522786485 9.857653589338671 3.676684247318156 
258 19 2 8.867992109270165 9.548441520282521 3.56177595786365 
259 19 2 7.923966695753848 9.239229451226374 3.446867668409144 
260 19 2 7.865314080268492 8.60186563338255 3.260396011461723 
261 19 2 7.74800884929778 7.327137997694903 2.8874526975668817 
262 19 2 8.6197479772972 6.850832446888019 2.772544408112376 
263 19 2 9.49148710529662 6.374526896081134 2.6576361186578694 
264 19 2 10.363226233296041 5.898221345274249 2.5427278292033635 
265 20 2 2.659425344541115 2.308879774522259 8.560747545040392 
266 20 2 3.4313894633470365 2.9257800780896837 8.40743278797306 
267 20 2 4.203353582152959 3.5426803816571084 8.254118030905726 
268 20 2 4.975317700958881 4.159580685224533 8.100803273838393 
269 20 2 5.747281819764802 4.776480988791961 7.947488516771059 
270 20 2 4.762626083746628 4.693128323616253 7.7941737597037255 
271 20 2 3.7779703477284547 4.609775658440546 7.640859002636392 
272 20 2 2.793314611710281 4.526422993264838 7.487544245569059 
273 20 2 1.8086588756921076 4.443070328089131 7.334229488501726 
274 21 2 2.358716483162672 0.8104872690643188 8.684229763610766 
275 21 2 2.8299717405901506 12.013367767708804 8.654397225113806 
276 21 2 3.301226998017629 11.131875565818287 8.624564686616846 
277 21 2 3.772482255445108 10.250383363927773 8.594732148119887 
278 21 2 4.329874743444524 10.50093207268907 8.328305041195103 
279 21 2 5.444659719443357 11.002029490211662 7.795450827345537 
280 21 2 5.098229845199228 11.939630877730911 7.765618288848577 
281 21 2 4.751799970955099 0.7928595647151635 7.735785750351617 
282 21 2 4.4053700967109695 1.7304609522344143 7.705953211854658 
283 22 2 10.5698709642455 3.836102202798821 7.0564791099067135 
284 22 2 10.061100111007226 4.696883110135259 7.070916854199349 
285 22 2 9.552329257768955 5.557664017471697 7.085354598491985 
286 22 2 8.80972792998989 5.268701422582297 7.156374924706072 
287 22 2 8.067126602210825 4.979738827692897 7.22739525092016 
288 22 2 7.324525274431761 4.690776232803497 7.298415577134248 
289 22 2 5.839322618873632 4.112851043024697 7.4404562295624235 
290 22 2 6.04616616049899 3.1345835433971057 7.454893973855059 
291 22 2 6.253009702124348 2.1563160437695146 7.469331718147695 
292 23 2 12.024309373109354 3.2793851868489496 7.157184859533586 
293 23 2 0.8856042281999397 3.5834490782355166 7.272328353453093 
294 23 2 1.8312717838255228 3.887512969622083 7.387471847372602 
295 23 2 2.7769393394511077 4.19157686100865 7.50261534129211 
296 23 2 3.722606895076689 4.495640752395215 7.617758835211617 
297 23 2 2.8314431062782255 4.934467685641541 7.732902329131124 
298 23 2 1.940279317479762 5.373294618887866 7.848045823050632 
299 23 2 1.0491155286812983 5.812121552134191 7.963189316970141 
300 23 2 0.15795173988283295 6.250948485380516 8.078332810889648 
301 24 2 3.023207311044693 4.8298247342851734 1.7102385970966572 
302 24 2 2.359825707271086 4.083593838774827 1.6548824920983494 
303 24 2 1.696444103497479 3.337362943264481 1.5995263871000418 
304 24 2 1.0330624997238722 2.5911320477541344 1.5441702821017342 
305 24 2 1.4269562719663067 2.092566736185754 1.342366489437195 
306 24 2 2.2147438164511755 1.0954361130489922 0.938758904108116 
307 24 2 3.094220714832822 1.5681475333176544 0.8834027991098083 
308 24 2 3.973697613214468 2.0408589535863166 0.8280466941115008 
309 24 2 4.853174511596114 2.5135703738549786 0.7726905891131932 
310 25 2 3.1419523466463097 4.7416317760406255 1.6812866900518126 
311 25 2 2.5973157784743197 3.907207922285732 1.5969786780086603 
312 25 2 2.0526792103023292 3.0727840685308374 1.512670665965508 
313 25 2 1.5080426421303392 2.2383602147759434 1.428362653922356 
314 25 2 1.9455306597152504 1.815238944365841 1.156301871300882 
315 25 2 2.8205066948850726 0.9689964035456362 0.612180306057934 
316 25 2 3.636286679611891 1.5411809678467396 0.5278722940147819 
317 25 2 4.45206666433871 2.113365532147843 0.4435642819716297 
318 25 2 5.267846649065528 2.6855500964489467 0.3592562699284776 
319 26 2 11.273817577077317 11.134621465011515 6.959299448138623 
320 26 2 10.412058875143408 10.62730368796329 6.960082220156571 
321 26 2 9.550300173209502 10.119985910915062 6.96086499217452 
322 26 2 9.942309843003954 9.423351064679684 6.992932262065319 
323 26 2 10.334319512798409 8.726716218444306 7.024999531956119 
324 26 2 10.726329182592863 8.03008137220893 7.0570668018469185 
325 26 2 11.51034852218177 6.636811679738173 7.121201341628518 
326 26 2 0.3068726791720643 7.110119310851417 7.121984113646467 
327 26 2 1.1877695366973577 7.58342694196466 7.122766885664415 
328 27 2 0.18132451687873719 3.5512612449182597 1.523355577529245 
329 27 2 11.967418808338676 4.4900630925916545 1.6956375600017943 
330 27 2 11.669140399263616 5.428864940265049 1.8679195424743433 
331 27 2 11.370861990188555 6.367666787938443 2.0402015249468923 
332 27 2 11.072583581113495 7.306468635611838 2.2124835074194413 
333 27 2 11.29786795953219 6.347528664938057 2.3847654898919903 
334 27 2 11.523152337950886 5.388588694264278 2.5570474723645393 
335 27 2 11.74843671636958 4.429648723590497 2.7293294548370883 
336 27 2 11.973721094788276 3.470708752916717 2.9016114373096373 
337 28 2 1.393648630293326 2.9908858649989223 1.4970662622754403 
338 28 2 2.3076943346328544 3.369312332752979 1.6430589294941846 
339 28 2 3.2217400389723827 3.747738800507036 1.7890515967129288 
340 28 2 4.135785743311911 4.126165268261093 1.935044263931673 
341 28 2 5.04983144765144 4.50459173601515 2.0810369311504173 
342 28 2 4.148018521560279 4.9113098047719435 2.2270295983691617 
343 28 2 3.2462055954691182 5.318027873528736 2.373022265587906 
344 28 2 2.3443926693779575 5.72474594228553 2.51901493280665 
345 28 2 1.4425797432867968 6.131464011042324 2.6650076000253944 
346 29 2 1.4176002842898054 7.061870078157369 6.466602519773722 
347 29 2 0.4736835655089573 6.746937207823737 6.367413230082663 
348 29 2 11.614139547263107 6.4320043374901035 6.268223940391605 
349 29 2 10.67022282848226 6.117071467156471 6.169034650700547 
350 29 2 9.726306109701412 5.802138596822837 6.069845361009488 
351 29 2 10.69499809779765 5.57454835755775 5.97065607131843 
352 29 2 11.66369008589389 5.3469581182926635 5.871466781627372 
353 29 2 0.5480093734551299 5.1193678790275765 5.772277491936314 
354 29 2 1.5167013615513691 4.89177763976249 5.673088202245255 
355 30 2 1.8008813857315962 8.11484299436625 6.190312655242716 
356 30 2 1.2402457683925387 8.852883040241498 5.814833501020651 
357 30 2 0.6796101510534813 9.590923086116744 5.439354346798587 
358 30 2 0.1189745337144239 10.32896313199199 5.063875192576523 
359 30 2 11.642711616910365 11.06700317786724 4.68839603835446 
360 30 2 11.83919719707442 10.161238958253616 4.312916884132396 
361 30 2 12.035682777238474 9.255474738639991 3.9374377299103314 
362 30 2 0.14779565686752827 8.349710519026367 3.5619585756882675 
363 30 2 0.3442812370315822 7.443946299412741 3.186479421466203 
364 31 2 1.5695839918858938 7.86138817948002 6.194282375259994 
365 31 2 0.777650980701134 8.345973410469036 5.822772941055208 
366 31 2 12.070090670051373 8.830558641458053 5.451263506850422 
367 31 2 11.278157658866613 9.31514387244707 5.0797540726456365 
368 31 2 11.163204907735807 9.16876748330928 4.439594512727263 
369 31 2 10.933299405474191 8.876014705033697 3.159275392890516 
370 31 2 11.591809332144411 8.221533676451797 2.78776595868573 
371 31 2 0.16594655827963223 7.567052647869898 2.4162565244809446 
372 31 2 0.8244564849498524 6.9125716192879985 2.0447470902761586 
373 32 2 0.9947998651533331 11.619407647689822 9.04749275340256 
374 32 2 1.7907034865660452 11.021310434414588 8.95359307877837 
375 32 2 2.5866071079787574 10.423213221139353 8.859693404154179 
376 32 2 3.0063037625577365 10.86791596936013 8.34385022657004 
377 32 2 3.4260004171367155 11.312618717580909 7.828007048985903 
378 32 2 3.845697071715695 11.757321465801686 7.312163871401764 
379 32 2 4.685090380873653 0.5623542617082413 6.280477516233488 
380 32 2 4.041982729315169 1.322351235131427 6.186577841609298 
381 32 2 3.398875077756685 2.0823482085546132 6.092678166985106 
382 33 2 11.547949178927755 9.29227007193572 10.417195189544742 
383 33 2 10.793002904980849 8.636592102559238 10.429133528123234 
384 33 2 10.038056631033943 7.980914133182756 10.441071866701726 
385 33 2 9.283110357087034 7.325236163806274 10.453010205280219 
386 33 2 8.528164083140124 6.669558194429797 10.46494854385871 
387 33 2 9.46939260554133 7.007117588744974 10.476886882437203 
388 33 2 10.410621127942536 7.34467698306015 10.488825221015695 
389 33 2 11.351849650343741 7.682236377375327 10.500763559594187 
390 33 2 0.20870547220994684 8.019795771690504 10.51270189817268 
391 34 2 4.959778170514895 3.6090288303335276 0.8392077158517107 
392 34 2 4.186904931052029 4.231775866543415 0.9610809475885358 
393 34 2 3.4140316915891633 4.854522902753302 1.082954179325361 
394 34 2 2.6411584521262976 5.477269938963188 1.2048274110621862 
395 34 2 1.8682852126634315 6.100016975173074 1.3267006427990116 
396 34 2 1.7896774569572056 5.110588990866559 1.4485738745358367 
397 34 2 1.7110697012509797 4.121161006560045 1.570447106272662 
398 34 2 1.6324619455447538 3.1317330222535302 1.6923203380094871 
399 34 2 1.553854189838528 2.1423050379470157 1.8141935697463123 
400 35 2 5.322527991878666 2.6105425371468822 0.3182057707954993 
401 35 2 4.561429349964986 1.9633504135437145 0.36146328370567316 
402 35 2 3.8003307080513062 1.3161582899405468 0.40472079661584703 
403 35 2 3.039232066137626 0.6689661663373792 0.4479783095260209 
404 35 2 2.278133424223947 0.021774042734208354 0.49123582243619524 
405 35 2 3.276736814877812 0.052106463531615244 0.5344933353463691 
406 35 2 4.275340205531677 0.08243888432902213 0.577750848256543 
407 35 2 5.273943596185541 0.11277130512642902 0.6210083611667169 
408 35 2 6.272546986839406 0.1431037259238359 0.6642658740768907 
409 36 2 9.923420760672995 6.91518924506981 0.3158300592845874 
410 36 2 10.294263756455386 7.8358790583115105 0.4375088999763965 
411 36 2 10.665106752237778 8.756568871553213 0.5591877406682056 
412 36 2 11.035949748020169 9.677258684794914 0.6808665813600148 
413 36 2 11.40679274380256 10.597948498036615 0.8025454220518239 
414 36 2 10.414694611682751 10.628535357507372 0.924224262743633 
415 36 2 9.422596479562943 10.65912221697813 1.045903103435442 
416 36 2 8.430498347443134 10.689709076448887 1.1675819441272512 
417 36 2 7.438400215323325 10.720295935919644 1.2892607848190605 
418 37 2 9.295177009773283 5.031815578001818 0.27772543020853824 
419 37 2 9.037776254655965 4.069131724175528 0.3612996418242982 
420 37 2 8.780375499538646 3.1064478703492377 0.44487385344005814 
421 37 2 8.522974744421326 2.143764016522948 0.5284480650558181 
422 37 2 8.915910155801667 2.0100324153290376 1.0501396077991512 
423 37 2 9.701780978562347 1.7425692129412167 2.0935226932858177 
424 37 2 10.085077074245625 2.6624058583227534 2.177096904901578 
425 37 2 10.468373169928904 3.5822425037042906 2.2606711165173374 
426 37 2 10.851669265612184 4.502079149085827 2.3442453281330975 
427 38 2 6.512516242584902 10.77730916093346 2.5214717439670573 
428 38 2 6.86926065011925 9.887337003762925 2.8055192525887502 
429 38 2 7.226005057653598 8.997364846592388 3.0895667612104427 
430 38 2 7.582749465187946 8.107392689421852 3.3736142698321356 
431 38 2 7.939493872722292 7.2174205322513165 3.657661778453826 
432 38 2 7.75002277818025 8.157323568302829 3.941709287075519 
433 38 2 7.5605516836382085 9.09722660435434 4.225756795697212 
434 38 2 7.371080589096167 10.037129640405853 4.509804304318904 
435 38 2 7.181609494554124 10.977032676457366 4.793851812940597 
436 39 2 5.4424777161633795 0.27588289192419424 2.3422963243054724 
437 39 2 4.729183597276204 0.9688571662793901 2.447168413265581 
438 39 2 4.015889478389029 1.6618314406345878 2.552040502225689 
439 39 2 3.3025953595018542 2.3548057149897836 2.6569125911857974 
440 39 2 2.5893012406146783 3.0477799893449813 2.7617846801459054 
441 39 2 2.783287116210317 2.0723973336520807 2.8666567691060134 
442 39 2 2.9772729918059557 1.0970146779591783 2.971528858066122 
443 39 2 3.171258867401594 0.12163202226627767 3.07640094702623 
444 39 2 3.3652447429972328 11.230622067108374 3.1812730359863384 
445 40 2 3.6677902608215986 3.244276857001063 5.9171373401244605 
446 40 2 4.5798130954449965 3.6462085320243274 5.835496187888006 
447 40 2 5.491835930068394 4.048140207047592 5.753855035651551 
448 40 2 5.339969954600121 4.7768960483964555 5.46085051487588 
449 40 2 5.188103979131847 5.505651889745319 5.16784599410021 
450 40 2 5.036238003663573 6.234407731094183 4.87484147332454 
451 40 2 4.732506052727026 7.69191941379191 4.2888324317732 
452 40 2 3.7358530343104195 7.696100698590996 4.207191279536745 
453 40 2 2.739200015893813 7.700281983390082 4.12555012730029 
454 41 2 8.77326095788446 11.22661963652168 1.210576583396392 
455 41 2 8.10526739519915 11.968069131882459 1.1470372566748424 
456 41 2 7.437273832513837 0.6251459267082389 1.0834979299532925 
457 41 2 6.769280269828524 1.36659542206902 1.019958603231743 
458 41 2 6.210135390955766 1.053776981605667 0.8357140044482527 
459 41 2 5.091845633210248 0.4281401006789629 0.4672248068812722 
460 41 2 5.374181332620807 11.555303677355376 0.40368548015972255 
461 41 2 5.656517032031367 10.59809455349679 0.3401461534381729 