20241016B1C1

1092 atoms
990 bond

0 12.084372700534999 xlo xhi
0 12.084372700534999 ylo yhi

Masses

1 1
2 1
3 1
