20241016B1C1

2784 atoms
1490 bonds
                   
3 atom types
1 bond types

0 12.084372700534999 xlo xhi
0 12.084372700534999 ylo yhi
0 12.084372700534999 zlo zhi

Masses

1 1
2 1
3 1

Atoms # molecular

1 1 1 7.900324979878825 10.571933066744563 5.483865594524117 
2 1 1 2.4914756070594994 7.368174430990455 2.1883449105574027 
3 1 1 4.568462466138446 9.79637943496262 10.232666393095583 
4 1 1 3.4317099256399133 5.141645523003177 8.689211927613705 
5 1 1 7.628163825931085 2.1662183442580694 1.3436054950880083 
6 1 1 10.747694982557325 2.472254375139876 10.460535488424465 
7 1 1 0.5718743186289933 6.238615866282427 7.828818845213328 
8 1 1 9.967593489933257 9.168830504088078 10.616063615585714 
9 1 1 5.814388903732802 0.6476077031757732 0.4734067683141737 
10 1 1 11.700068349819121 10.476077727450967 3.9065008262271683 
11 1 1 0.9332750404509873 7.89186725979035 2.8010298593286445 
12 1 1 11.1696128402798 2.7664885538955715 11.137917710422634 
13 1 1 11.541555098837163 9.717165553459248 7.6004261852530535 
14 1 1 1.887461225735193 1.6919794709548337 8.714062302107726 
15 1 1 11.07864181748377 2.975321295462383 7.042041365614078 
16 1 1 3.6865889148182998 5.57605562979552 1.7655947020949647 
17 1 1 0.05120357847622621 11.641939242059742 6.958516676120674 
18 1 1 0.47960292595379744 2.6124593972448653 1.351073595056696 
19 1 1 2.3615170030706536 7.376802948491003 6.56579180946478 
20 1 1 0.198896243740621 0.1331321604300579 9.141392428026752 
21 1 1 0.21852275233966356 9.947948041312202 10.40525685096625 
22 1 1 5.732651409977761 2.986281794123641 0.7173344841148855 
23 1 1 6.083626633792346 3.25773466075005 0.2749482578853254 
24 1 1 9.552577764890604 5.994499431828108 0.1941512185927783 
25 1 1 6.155771835050555 11.667281318103996 2.2374242353453644 
26 1 1 2.7557674261982013 2.842345181977799 5.998778492360915 
27 1 1 9.441254520569773 10.485170141160898 1.2741159101179416 
28 1 1 0.5407668171956361 6.538182079799117 2.8110002672441388 
29 1 1 8.296904524328639 0.06792255515865252 5.53429562208893 
30 1 1 10.474120163062688 0.1902861837522126 4.516781332957267 
31 1 1 1.7425469974772059 7.704463268189168 4.043908975063835 
32 1 1 2.7877731706492783 0.835816235688029 4.866008850588264 
33 1 1 2.732636882790751 11.642864720535103 7.109235230650471 
34 1 1 4.213257192347301 8.904545357138607 11.867705124525967 
35 1 1 11.81744564294475 9.90926118905201 1.904131988207862 
36 1 1 6.202994261220438 3.2165121153169003 4.267271212831999 
37 1 1 7.777008193311337 9.538146526586567 4.638841329021516 
38 1 1 3.19528140344478 9.384122759643134 3.7850619490546835 
39 1 1 11.351160651619368 6.689775418626842 8.193476304809156 
40 1 1 6.446302083203516 10.750882795390401 1.4109396255108695 
41 1 1 0.7936850505653046 6.670411583003857 7.357536809622633 
42 1 1 9.040815072352354 9.019807979916427 5.575571317032164 
43 1 1 2.4853933496476084 4.664187400497403 5.573898912554197 
44 1 1 11.418276370296534 0.2117741323096287 0.4165705195171044 
45 1 1 5.731736460176459 3.476387797146458 11.438074490317511 
46 1 1 11.234965361295462 5.421915794467364 2.4278195397488576 
47 1 1 7.571939541146206 10.26908857100441 3.512127354657571 
48 1 1 1.9705868298007574 7.357585017265403 11.603531089105843 
49 1 1 0.7219461204531498 9.278331501662121 5.834516139538392 
50 1 1 7.5188454699683644 5.057247475323135 5.6600919412905375 
51 1 1 11.877482082797426 11.070407460855078 2.1114088886321607 
52 1 1 10.901204520137496 9.153976876676087 5.817726883377009 
53 1 1 0.9403820927419194 6.295491011029629 11.620431169089619 
54 1 1 0.7451121234400239 10.752928322713839 8.633706343633813 
55 1 1 7.367349099681256 1.0366440072144367 8.105254018718409 
56 1 1 4.05894022246684 2.668062339753665 7.6761206733576985 
57 1 1 8.042527073173684 8.345876069396473 6.895023170357947 
58 1 1 9.231529798015545 5.010057030211124 9.194666173613903 
59 1 1 0.0761726136322323 2.3988382029695887 5.004353599231748 
60 1 1 0.125302483029716 1.5904148491746546 5.57010194435023 
61 1 1 8.597831519548803 7.04967105493566 3.2373575291837597 
62 1 1 7.321210947810442 1.8891451970660755 4.2202902882568205 
63 1 1 7.271150377493271 0.1734361467212428 0.7075233869870646 
64 1 1 1.4203241184638316 7.079080094043678 1.9714305334361706 
65 1 1 3.5995499969649596 3.723058025689883 5.97357892674306 
66 1 1 7.99165914483855 10.14173864050264 6.6088054189330805 
67 1 1 8.040646192525942 7.429612813278101 0.9867168133064179 
68 1 1 10.282126355681537 2.223389154131534 9.036521793705147 
69 1 1 6.221188430852485 8.683676305779617 0.21306749999507357 
70 1 1 9.368524433619273 4.521233238369404 0.39112452663595476 
71 1 1 0.8240031396739343 4.359717662913423 7.180914731434393 
72 1 1 11.883817589141195 4.992196297766834 7.537867599822357 
73 1 1 6.552838859462166 7.444495977605872 8.72261638318212 
74 1 1 3.5592306185928715 10.255239411415474 3.2861451249464464 
75 1 1 6.565413197503579 11.534471906081363 7.445978796514289 
76 1 1 5.702740702545386 10.465587086703502 8.761921568637092 
77 1 1 6.992138400012082 11.916935712508877 5.07789932156229 
78 1 1 11.417039301133896 0.7838742561018175 4.683220070787104 
79 1 1 5.378868310233744 9.9715203268054 1.5758065216521102 
80 1 1 9.630272416839254 2.534997332039238 3.2617408452288643 
81 1 1 1.4752464341323022 1.1528770536405013 1.9360668014831375 
82 1 1 1.4829664116200723 6.258090590706098 1.6732376560713726 
83 1 1 11.217355412834376 1.7923398726372046 7.93697871732576 
84 1 1 6.0686312619170755 6.065114528493578 12.053836481902344 
85 1 1 8.96145208161136 4.28676705540824 9.928239098736464 
86 1 1 3.031281200638842 9.768021132754058 9.487443930226638 
87 1 1 9.8932514014374 7.077608393643053 10.630507651644702 
88 1 1 10.245010937947027 5.4848852798067815 7.265455752722595 
89 1 1 6.7638968950170435 6.5303857799399285 5.284972291551776 
90 1 1 1.677904152727069 4.585898542758056 2.1694713152893574 
91 1 1 2.0686663942226513 8.056734573077904 7.123549657682364 
92 1 1 10.921883060448504 5.1487135918686935 2.3194040230806876 
93 1 1 1.7107391556409048 8.620499699690722 7.535585597957384 
94 1 1 8.30999510787521 11.010422672248174 9.027089643927193 
95 1 1 10.099678111309625 2.2770209112085804 5.290812631600278 
96 1 1 6.459853243749706 1.1780485441419228 7.48376946244033 
97 1 1 7.3013804077734195 9.725188887073259 10.645217650758921 
98 1 1 7.54255961131266 1.3142723610534603 1.2018698084325021 
99 1 1 0.11463277267197264 2.5117687822429366 3.0738934197821863 
100 1 3 4.179994737056344 10.261752138890982 11.707801256797932 
101 1 3 1.1499339946111522 8.35735516600568 10.524640236751171 
102 1 3 8.866808625950519 9.643818792661031 9.41917502612096 
103 2 2 nan nan nan 
104 2 2 nan nan nan 
105 2 2 nan nan nan 
106 2 2 nan nan nan 
107 2 2 nan nan nan 
108 2 2 nan nan nan 
109 2 2 nan nan nan 
110 2 2 nan nan nan 
111 2 2 nan nan nan 
112 3 2 nan nan nan 
113 3 2 nan nan nan 
114 3 2 nan nan nan 
115 3 2 nan nan nan 
116 3 2 nan nan nan 
117 3 2 nan nan nan 
118 3 2 nan nan nan 
119 3 2 nan nan nan 
120 3 2 nan nan nan 
121 4 2 nan nan nan 
122 4 2 nan nan nan 
123 4 2 nan nan nan 
124 4 2 nan nan nan 
125 4 2 nan nan nan 
126 4 2 nan nan nan 
127 4 2 nan nan nan 
128 4 2 nan nan nan 
129 4 2 nan nan nan 
130 5 2 nan nan nan 
131 5 2 nan nan nan 
132 5 2 nan nan nan 
133 5 2 nan nan nan 
134 5 2 nan nan nan 
135 5 2 nan nan nan 
136 5 2 nan nan nan 
137 5 2 nan nan nan 
138 5 2 nan nan nan 
139 6 2 nan nan nan 
140 6 2 nan nan nan 
141 6 2 nan nan nan 
142 6 2 nan nan nan 
143 6 2 nan nan nan 
144 6 2 nan nan nan 
145 6 2 nan nan nan 
146 6 2 nan nan nan 
147 6 2 nan nan nan 
148 7 2 nan nan nan 
149 7 2 nan nan nan 
150 7 2 nan nan nan 
151 7 2 nan nan nan 
152 7 2 nan nan nan 
153 7 2 nan nan nan 
154 7 2 nan nan nan 
155 7 2 nan nan nan 
156 7 2 nan nan nan 
157 8 2 nan nan nan 
158 8 2 nan nan nan 
159 8 2 nan nan nan 
160 8 2 nan nan nan 
161 8 2 nan nan nan 
162 8 2 nan nan nan 
163 8 2 nan nan nan 
164 8 2 nan nan nan 
165 8 2 nan nan nan 
166 9 2 nan nan nan 
167 9 2 nan nan nan 
168 9 2 nan nan nan 
169 9 2 nan nan nan 
170 9 2 nan nan nan 
171 9 2 nan nan nan 
172 9 2 nan nan nan 
173 9 2 nan nan nan 
174 9 2 nan nan nan 
175 10 2 nan nan nan 
176 10 2 nan nan nan 
177 10 2 nan nan nan 
178 10 2 nan nan nan 
179 10 2 nan nan nan 
180 10 2 nan nan nan 
181 10 2 nan nan nan 
182 10 2 nan nan nan 
183 10 2 nan nan nan 
184 11 2 nan nan nan 
185 11 2 nan nan nan 
186 11 2 nan nan nan 
187 11 2 nan nan nan 
188 11 2 nan nan nan 
189 11 2 nan nan nan 
190 11 2 nan nan nan 
191 11 2 nan nan nan 
192 11 2 nan nan nan 
193 12 2 nan nan nan 
194 12 2 nan nan nan 
195 12 2 nan nan nan 
196 12 2 nan nan nan 
197 12 2 nan nan nan 
198 12 2 nan nan nan 
199 12 2 nan nan nan 
200 12 2 nan nan nan 
201 12 2 nan nan nan 
202 13 2 nan nan nan 
203 13 2 nan nan nan 
204 13 2 nan nan nan 
205 13 2 nan nan nan 
206 13 2 nan nan nan 
207 13 2 nan nan nan 
208 13 2 nan nan nan 
209 13 2 nan nan nan 
210 13 2 nan nan nan 
211 14 2 nan nan nan 
212 14 2 nan nan nan 
213 14 2 nan nan nan 
214 14 2 nan nan nan 
215 14 2 nan nan nan 
216 14 2 nan nan nan 
217 14 2 nan nan nan 
218 14 2 nan nan nan 
219 14 2 nan nan nan 
220 15 2 nan nan nan 
221 15 2 nan nan nan 
222 15 2 nan nan nan 
223 15 2 nan nan nan 
224 15 2 nan nan nan 
225 15 2 nan nan nan 
226 15 2 nan nan nan 
227 15 2 nan nan nan 
228 15 2 nan nan nan 
229 16 2 nan nan nan 
230 16 2 nan nan nan 
231 16 2 nan nan nan 
232 16 2 nan nan nan 
233 16 2 nan nan nan 
234 16 2 nan nan nan 
235 16 2 nan nan nan 
236 16 2 nan nan nan 
237 16 2 nan nan nan 
238 17 2 nan nan nan 
239 17 2 nan nan nan 
240 17 2 nan nan nan 
241 17 2 nan nan nan 
242 17 2 nan nan nan 
243 17 2 nan nan nan 
244 17 2 nan nan nan 
245 17 2 nan nan nan 
246 17 2 nan nan nan 
247 18 2 nan nan nan 
248 18 2 nan nan nan 
249 18 2 nan nan nan 
250 18 2 nan nan nan 
251 18 2 nan nan nan 
252 18 2 nan nan nan 
253 18 2 nan nan nan 
254 18 2 nan nan nan 
255 18 2 nan nan nan 
256 19 2 nan nan nan 
257 19 2 nan nan nan 
258 19 2 nan nan nan 
259 19 2 nan nan nan 
260 19 2 nan nan nan 
261 19 2 nan nan nan 
262 19 2 nan nan nan 
263 19 2 nan nan nan 
264 19 2 nan nan nan 
265 20 2 nan nan nan 
266 20 2 nan nan nan 
267 20 2 nan nan nan 
268 20 2 nan nan nan 
269 20 2 nan nan nan 
270 20 2 nan nan nan 
271 20 2 nan nan nan 
272 20 2 nan nan nan 
273 20 2 nan nan nan 
274 21 2 nan nan nan 
275 21 2 nan nan nan 
276 21 2 nan nan nan 
277 21 2 nan nan nan 
278 21 2 nan nan nan 
279 21 2 nan nan nan 
280 21 2 nan nan nan 
281 21 2 nan nan nan 
282 21 2 nan nan nan 
283 22 2 nan nan nan 
284 22 2 nan nan nan 
285 22 2 nan nan nan 
286 22 2 nan nan nan 
287 22 2 nan nan nan 
288 22 2 nan nan nan 
289 22 2 nan nan nan 
290 22 2 nan nan nan 
291 22 2 nan nan nan 
292 23 2 nan nan nan 
293 23 2 nan nan nan 
294 23 2 nan nan nan 
295 23 2 nan nan nan 
296 23 2 nan nan nan 
297 23 2 nan nan nan 
298 23 2 nan nan nan 
299 23 2 nan nan nan 
300 23 2 nan nan nan 
301 24 2 nan nan nan 
302 24 2 nan nan nan 
303 24 2 nan nan nan 
304 24 2 nan nan nan 
305 24 2 nan nan nan 
306 24 2 nan nan nan 
307 24 2 nan nan nan 
308 24 2 nan nan nan 
309 24 2 nan nan nan 
310 25 2 nan nan nan 
311 25 2 nan nan nan 
312 25 2 nan nan nan 
313 25 2 nan nan nan 
314 25 2 nan nan nan 
315 25 2 nan nan nan 
316 25 2 nan nan nan 
317 25 2 nan nan nan 
318 25 2 nan nan nan 
319 26 2 nan nan nan 
320 26 2 nan nan nan 
321 26 2 nan nan nan 
322 26 2 nan nan nan 
323 26 2 nan nan nan 
324 26 2 nan nan nan 
325 26 2 nan nan nan 
326 26 2 nan nan nan 
327 26 2 nan nan nan 
328 27 2 nan nan nan 
329 27 2 nan nan nan 
330 27 2 nan nan nan 
331 27 2 nan nan nan 
332 27 2 nan nan nan 
333 27 2 nan nan nan 
334 27 2 nan nan nan 
335 27 2 nan nan nan 
336 27 2 nan nan nan 
337 28 2 nan nan nan 
338 28 2 nan nan nan 
339 28 2 nan nan nan 
340 28 2 nan nan nan 
341 28 2 nan nan nan 
342 28 2 nan nan nan 
343 28 2 nan nan nan 
344 28 2 nan nan nan 
345 28 2 nan nan nan 
346 29 2 nan nan nan 
347 29 2 nan nan nan 
348 29 2 nan nan nan 
349 29 2 nan nan nan 
350 29 2 nan nan nan 
351 29 2 nan nan nan 
352 29 2 nan nan nan 
353 29 2 nan nan nan 
354 29 2 nan nan nan 
355 30 2 nan nan nan 
356 30 2 nan nan nan 
357 30 2 nan nan nan 
358 30 2 nan nan nan 
359 30 2 nan nan nan 
360 30 2 nan nan nan 
361 30 2 nan nan nan 
362 30 2 nan nan nan 
363 30 2 nan nan nan 
364 31 2 nan nan nan 
365 31 2 nan nan nan 
366 31 2 nan nan nan 
367 31 2 nan nan nan 
368 31 2 nan nan nan 
369 31 2 nan nan nan 
370 31 2 nan nan nan 
371 31 2 nan nan nan 
372 31 2 nan nan nan 
373 32 2 nan nan nan 
374 32 2 nan nan nan 
375 32 2 nan nan nan 
376 32 2 nan nan nan 
377 32 2 nan nan nan 
378 32 2 nan nan nan 
379 32 2 nan nan nan 
380 32 2 nan nan nan 
381 32 2 nan nan nan 
382 33 2 nan nan nan 
383 33 2 nan nan nan 
384 33 2 nan nan nan 
385 33 2 nan nan nan 
386 33 2 nan nan nan 
387 33 2 nan nan nan 
388 33 2 nan nan nan 
389 33 2 nan nan nan 
390 33 2 nan nan nan 
391 34 2 nan nan nan 
392 34 2 nan nan nan 
393 34 2 nan nan nan 
394 34 2 nan nan nan 
395 34 2 nan nan nan 
396 34 2 nan nan nan 
397 34 2 nan nan nan 
398 34 2 nan nan nan 
399 34 2 nan nan nan 
400 35 2 nan nan nan 
401 35 2 nan nan nan 
402 35 2 nan nan nan 
403 35 2 nan nan nan 
404 35 2 nan nan nan 
405 35 2 nan nan nan 
406 35 2 nan nan nan 
407 35 2 nan nan nan 
408 35 2 nan nan nan 
409 36 2 nan nan nan 
410 36 2 nan nan nan 
411 36 2 nan nan nan 
412 36 2 nan nan nan 
413 36 2 nan nan nan 
414 36 2 nan nan nan 
415 36 2 nan nan nan 
416 36 2 nan nan nan 
417 36 2 nan nan nan 
418 37 2 nan nan nan 
419 37 2 nan nan nan 
420 37 2 nan nan nan 
421 37 2 nan nan nan 
422 37 2 nan nan nan 
423 37 2 nan nan nan 
424 37 2 nan nan nan 
425 37 2 nan nan nan 
426 37 2 nan nan nan 
427 38 2 nan nan nan 
428 38 2 nan nan nan 
429 38 2 nan nan nan 
430 38 2 nan nan nan 
431 38 2 nan nan nan 
432 38 2 nan nan nan 
433 38 2 nan nan nan 
434 38 2 nan nan nan 
435 38 2 nan nan nan 
436 39 2 nan nan nan 
437 39 2 nan nan nan 
438 39 2 nan nan nan 
439 39 2 nan nan nan 
440 39 2 nan nan nan 
441 39 2 nan nan nan 
442 39 2 nan nan nan 
443 39 2 nan nan nan 
444 39 2 nan nan nan 
445 40 2 nan nan nan 
446 40 2 nan nan nan 
447 40 2 nan nan nan 
448 40 2 nan nan nan 
449 40 2 nan nan nan 
450 40 2 nan nan nan 
451 40 2 nan nan nan 
452 40 2 nan nan nan 
453 40 2 nan nan nan 
454 41 2 nan nan nan 
455 41 2 nan nan nan 
456 41 2 nan nan nan 
457 41 2 nan nan nan 
458 41 2 nan nan nan 
459 41 2 nan nan nan 
460 41 2 nan nan nan 
461 41 2 nan nan nan 
462 41 2 nan nan nan 
463 42 2 nan nan nan 
464 42 2 nan nan nan 
465 42 2 nan nan nan 
466 42 2 nan nan nan 
467 42 2 nan nan nan 
468 42 2 nan nan nan 
469 42 2 nan nan nan 
470 42 2 nan nan nan 
471 42 2 nan nan nan 
472 43 2 nan nan nan 
473 43 2 nan nan nan 
474 43 2 nan nan nan 
475 43 2 nan nan nan 
476 43 2 nan nan nan 
477 43 2 nan nan nan 
478 43 2 nan nan nan 
479 43 2 nan nan nan 
480 43 2 nan nan nan 
481 44 2 nan nan nan 
482 44 2 nan nan nan 
483 44 2 nan nan nan 
484 44 2 nan nan nan 
485 44 2 nan nan nan 
486 44 2 nan nan nan 
487 44 2 nan nan nan 
488 44 2 nan nan nan 
489 44 2 nan nan nan 
490 45 2 nan nan nan 
491 45 2 nan nan nan 
492 45 2 nan nan nan 
493 45 2 nan nan nan 
494 45 2 nan nan nan 
495 45 2 nan nan nan 
496 45 2 nan nan nan 
497 45 2 nan nan nan 
498 45 2 nan nan nan 
499 46 2 nan nan nan 
500 46 2 nan nan nan 
501 46 2 nan nan nan 
502 46 2 nan nan nan 
503 46 2 nan nan nan 
504 46 2 nan nan nan 
505 46 2 nan nan nan 
506 46 2 nan nan nan 
507 46 2 nan nan nan 
508 47 2 nan nan nan 
509 47 2 nan nan nan 
510 47 2 nan nan nan 
511 47 2 nan nan nan 
512 47 2 nan nan nan 
513 47 2 nan nan nan 
514 47 2 nan nan nan 
515 47 2 nan nan nan 
516 47 2 nan nan nan 
517 48 2 nan nan nan 
518 48 2 nan nan nan 
519 48 2 nan nan nan 
520 48 2 nan nan nan 
521 48 2 nan nan nan 
522 48 2 nan nan nan 
523 48 2 nan nan nan 
524 48 2 nan nan nan 
525 48 2 nan nan nan 
526 49 2 nan nan nan 
527 49 2 nan nan nan 
528 49 2 nan nan nan 
529 49 2 nan nan nan 
530 49 2 nan nan nan 
531 49 2 nan nan nan 
532 49 2 nan nan nan 
533 49 2 nan nan nan 
534 49 2 nan nan nan 
535 50 2 nan nan nan 
536 50 2 nan nan nan 
537 50 2 nan nan nan 
538 50 2 nan nan nan 
539 50 2 nan nan nan 
540 50 2 nan nan nan 
541 50 2 nan nan nan 
542 50 2 nan nan nan 
543 50 2 nan nan nan 
544 51 2 nan nan nan 
545 51 2 nan nan nan 
546 51 2 nan nan nan 
547 51 2 nan nan nan 
548 51 2 nan nan nan 
549 51 2 nan nan nan 
550 51 2 nan nan nan 
551 51 2 nan nan nan 
552 51 2 nan nan nan 
553 52 2 nan nan nan 
554 52 2 nan nan nan 
555 52 2 nan nan nan 
556 52 2 nan nan nan 
557 52 2 nan nan nan 
558 52 2 nan nan nan 
559 52 2 nan nan nan 
560 52 2 nan nan nan 
561 52 2 nan nan nan 
562 53 2 nan nan nan 
563 53 2 nan nan nan 
564 53 2 nan nan nan 
565 53 2 nan nan nan 
566 53 2 nan nan nan 
567 53 2 nan nan nan 
568 53 2 nan nan nan 
569 53 2 nan nan nan 
570 53 2 nan nan nan 
571 54 2 nan nan nan 
572 54 2 nan nan nan 
573 54 2 nan nan nan 
574 54 2 nan nan nan 
575 54 2 nan nan nan 
576 54 2 nan nan nan 
577 54 2 nan nan nan 
578 54 2 nan nan nan 
579 54 2 nan nan nan 
580 55 2 nan nan nan 
581 55 2 nan nan nan 
582 55 2 nan nan nan 
583 55 2 nan nan nan 
584 55 2 nan nan nan 
585 55 2 nan nan nan 
586 55 2 nan nan nan 
587 55 2 nan nan nan 
588 55 2 nan nan nan 
589 56 2 nan nan nan 
590 56 2 nan nan nan 
591 56 2 nan nan nan 
592 56 2 nan nan nan 
593 56 2 nan nan nan 
594 56 2 nan nan nan 
595 56 2 nan nan nan 
596 56 2 nan nan nan 
597 56 2 nan nan nan 
598 57 2 nan nan nan 
599 57 2 nan nan nan 
600 57 2 nan nan nan 
601 57 2 nan nan nan 
602 57 2 nan nan nan 
603 57 2 nan nan nan 
604 57 2 nan nan nan 
605 57 2 nan nan nan 
606 57 2 nan nan nan 
607 58 2 nan nan nan 
608 58 2 nan nan nan 
609 58 2 nan nan nan 
610 58 2 nan nan nan 
611 58 2 nan nan nan 
612 58 2 nan nan nan 
613 58 2 nan nan nan 
614 58 2 nan nan nan 
615 58 2 nan nan nan 
616 59 2 nan nan nan 
617 59 2 nan nan nan 
618 59 2 nan nan nan 
619 59 2 nan nan nan 
620 59 2 nan nan nan 
621 59 2 nan nan nan 
622 59 2 nan nan nan 
623 59 2 nan nan nan 
624 59 2 nan nan nan 
625 60 2 nan nan nan 
626 60 2 nan nan nan 
627 60 2 nan nan nan 
628 60 2 nan nan nan 
629 60 2 nan nan nan 
630 60 2 nan nan nan 
631 60 2 nan nan nan 
632 60 2 nan nan nan 
633 60 2 nan nan nan 
634 61 2 nan nan nan 
635 61 2 nan nan nan 
636 61 2 nan nan nan 
637 61 2 nan nan nan 
638 61 2 nan nan nan 
639 61 2 nan nan nan 
640 61 2 nan nan nan 
641 61 2 nan nan nan 
642 61 2 nan nan nan 
643 62 2 nan nan nan 
644 62 2 nan nan nan 
645 62 2 nan nan nan 
646 62 2 nan nan nan 
647 62 2 nan nan nan 
648 62 2 nan nan nan 
649 62 2 nan nan nan 
650 62 2 nan nan nan 
651 62 2 nan nan nan 
652 63 2 nan nan nan 
653 63 2 nan nan nan 
654 63 2 nan nan nan 
655 63 2 nan nan nan 
656 63 2 nan nan nan 
657 63 2 nan nan nan 
658 63 2 nan nan nan 
659 63 2 nan nan nan 
660 63 2 nan nan nan 
661 64 2 nan nan nan 
662 64 2 nan nan nan 
663 64 2 nan nan nan 
664 64 2 nan nan nan 
665 64 2 nan nan nan 
666 64 2 nan nan nan 
667 64 2 nan nan nan 
668 64 2 nan nan nan 
669 64 2 nan nan nan 
670 65 2 nan nan nan 
671 65 2 nan nan nan 
672 65 2 nan nan nan 
673 65 2 nan nan nan 
674 65 2 nan nan nan 
675 65 2 nan nan nan 
676 65 2 nan nan nan 
677 65 2 nan nan nan 
678 65 2 nan nan nan 
679 66 2 nan nan nan 
680 66 2 nan nan nan 
681 66 2 nan nan nan 
682 66 2 nan nan nan 
683 66 2 nan nan nan 
684 66 2 nan nan nan 
685 66 2 nan nan nan 
686 66 2 nan nan nan 
687 66 2 nan nan nan 
688 67 2 nan nan nan 
689 67 2 nan nan nan 
690 67 2 nan nan nan 
691 67 2 nan nan nan 
692 67 2 nan nan nan 
693 67 2 nan nan nan 
694 67 2 nan nan nan 
695 67 2 nan nan nan 
696 67 2 nan nan nan 
697 68 2 nan nan nan 
698 68 2 nan nan nan 
699 68 2 nan nan nan 
700 68 2 nan nan nan 
701 68 2 nan nan nan 
702 68 2 nan nan nan 
703 68 2 nan nan nan 
704 68 2 nan nan nan 
705 68 2 nan nan nan 
706 69 2 nan nan nan 
707 69 2 nan nan nan 
708 69 2 nan nan nan 
709 69 2 nan nan nan 
710 69 2 nan nan nan 
711 69 2 nan nan nan 
712 69 2 nan nan nan 
713 69 2 nan nan nan 
714 69 2 nan nan nan 
715 70 2 nan nan nan 
716 70 2 nan nan nan 
717 70 2 nan nan nan 
718 70 2 nan nan nan 
719 70 2 nan nan nan 
720 70 2 nan nan nan 
721 70 2 nan nan nan 
722 70 2 nan nan nan 
723 70 2 nan nan nan 
724 71 2 nan nan nan 
725 71 2 nan nan nan 
726 71 2 nan nan nan 
727 71 2 nan nan nan 
728 71 2 nan nan nan 
729 71 2 nan nan nan 
730 71 2 nan nan nan 
731 71 2 nan nan nan 
732 71 2 nan nan nan 
733 72 2 nan nan nan 
734 72 2 nan nan nan 
735 72 2 nan nan nan 
736 72 2 nan nan nan 
737 72 2 nan nan nan 
738 72 2 nan nan nan 
739 72 2 nan nan nan 
740 72 2 nan nan nan 
741 72 2 nan nan nan 
742 73 2 nan nan nan 
743 73 2 nan nan nan 
744 73 2 nan nan nan 
745 73 2 nan nan nan 
746 73 2 nan nan nan 
747 73 2 nan nan nan 
748 73 2 nan nan nan 
749 73 2 nan nan nan 
750 73 2 nan nan nan 
751 74 2 nan nan nan 
752 74 2 nan nan nan 
753 74 2 nan nan nan 
754 74 2 nan nan nan 
755 74 2 nan nan nan 
756 74 2 nan nan nan 
757 74 2 nan nan nan 
758 74 2 nan nan nan 
759 74 2 nan nan nan 
760 75 2 nan nan nan 
761 75 2 nan nan nan 
762 75 2 nan nan nan 
763 75 2 nan nan nan 
764 75 2 nan nan nan 
765 75 2 nan nan nan 
766 75 2 nan nan nan 
767 75 2 nan nan nan 
768 75 2 nan nan nan 
769 76 2 nan nan nan 
770 76 2 nan nan nan 
771 76 2 nan nan nan 
772 76 2 nan nan nan 
773 76 2 nan nan nan 
774 76 2 nan nan nan 
775 76 2 nan nan nan 
776 76 2 nan nan nan 
777 76 2 nan nan nan 
778 77 2 nan nan nan 
779 77 2 nan nan nan 
780 77 2 nan nan nan 
781 77 2 nan nan nan 
782 77 2 nan nan nan 
783 77 2 nan nan nan 
784 77 2 nan nan nan 
785 77 2 nan nan nan 
786 77 2 nan nan nan 
787 78 2 nan nan nan 
788 78 2 nan nan nan 
789 78 2 nan nan nan 
790 78 2 nan nan nan 
791 78 2 nan nan nan 
792 78 2 nan nan nan 
793 78 2 nan nan nan 
794 78 2 nan nan nan 
795 78 2 nan nan nan 
796 79 2 nan nan nan 
797 79 2 nan nan nan 
798 79 2 nan nan nan 
799 79 2 nan nan nan 
800 79 2 nan nan nan 
801 79 2 nan nan nan 
802 79 2 nan nan nan 
803 79 2 nan nan nan 
804 79 2 nan nan nan 
805 80 2 nan nan nan 
806 80 2 nan nan nan 
807 80 2 nan nan nan 
808 80 2 nan nan nan 
809 80 2 nan nan nan 
810 80 2 nan nan nan 
811 80 2 nan nan nan 
812 80 2 nan nan nan 
813 80 2 nan nan nan 
814 81 2 nan nan nan 
815 81 2 nan nan nan 
816 81 2 nan nan nan 
817 81 2 nan nan nan 
818 81 2 nan nan nan 
819 81 2 nan nan nan 
820 81 2 nan nan nan 
821 81 2 nan nan nan 
822 81 2 nan nan nan 
823 82 2 nan nan nan 
824 82 2 nan nan nan 
825 82 2 nan nan nan 
826 82 2 nan nan nan 
827 82 2 nan nan nan 
828 82 2 nan nan nan 
829 82 2 nan nan nan 
830 82 2 nan nan nan 
831 82 2 nan nan nan 
832 83 2 nan nan nan 
833 83 2 nan nan nan 
834 83 2 nan nan nan 
835 83 2 nan nan nan 
836 83 2 nan nan nan 
837 83 2 nan nan nan 
838 83 2 nan nan nan 
839 83 2 nan nan nan 
840 83 2 nan nan nan 
841 84 2 nan nan nan 
842 84 2 nan nan nan 
843 84 2 nan nan nan 
844 84 2 nan nan nan 
845 84 2 nan nan nan 
846 84 2 nan nan nan 
847 84 2 nan nan nan 
848 84 2 nan nan nan 
849 84 2 nan nan nan 
850 85 2 nan nan nan 
851 85 2 nan nan nan 
852 85 2 nan nan nan 
853 85 2 nan nan nan 
854 85 2 nan nan nan 
855 85 2 nan nan nan 
856 85 2 nan nan nan 
857 85 2 nan nan nan 
858 85 2 nan nan nan 
859 86 2 nan nan nan 
860 86 2 nan nan nan 
861 86 2 nan nan nan 
862 86 2 nan nan nan 
863 86 2 nan nan nan 
864 86 2 nan nan nan 
865 86 2 nan nan nan 
866 86 2 nan nan nan 
867 86 2 nan nan nan 
868 87 2 nan nan nan 
869 87 2 nan nan nan 
870 87 2 nan nan nan 
871 87 2 nan nan nan 
872 87 2 nan nan nan 
873 87 2 nan nan nan 
874 87 2 nan nan nan 
875 87 2 nan nan nan 
876 87 2 nan nan nan 
877 88 2 nan nan nan 
878 88 2 nan nan nan 
879 88 2 nan nan nan 
880 88 2 nan nan nan 
881 88 2 nan nan nan 
882 88 2 nan nan nan 
883 88 2 nan nan nan 
884 88 2 nan nan nan 
885 88 2 nan nan nan 
886 89 2 nan nan nan 
887 89 2 nan nan nan 
888 89 2 nan nan nan 
889 89 2 nan nan nan 
890 89 2 nan nan nan 
891 89 2 nan nan nan 
892 89 2 nan nan nan 
893 89 2 nan nan nan 
894 89 2 nan nan nan 
895 90 2 nan nan nan 
896 90 2 nan nan nan 
897 90 2 nan nan nan 
898 90 2 nan nan nan 
899 90 2 nan nan nan 
900 90 2 nan nan nan 
901 90 2 nan nan nan 
902 90 2 nan nan nan 
903 90 2 nan nan nan 
904 91 2 nan nan nan 
905 91 2 nan nan nan 
906 91 2 nan nan nan 
907 91 2 nan nan nan 
908 91 2 nan nan nan 
909 91 2 nan nan nan 
910 91 2 nan nan nan 
911 91 2 nan nan nan 
912 91 2 nan nan nan 
913 92 2 nan nan nan 
914 92 2 nan nan nan 
915 92 2 nan nan nan 
916 92 2 nan nan nan 
917 92 2 nan nan nan 
918 92 2 nan nan nan 
919 92 2 nan nan nan 
920 92 2 nan nan nan 
921 92 2 nan nan nan 
922 93 2 nan nan nan 
923 93 2 nan nan nan 
924 93 2 nan nan nan 
925 93 2 nan nan nan 
926 93 2 nan nan nan 
927 93 2 nan nan nan 
928 93 2 nan nan nan 
929 93 2 nan nan nan 
930 93 2 nan nan nan 
931 94 2 nan nan nan 
932 94 2 nan nan nan 
933 94 2 nan nan nan 
934 94 2 nan nan nan 
935 94 2 nan nan nan 
936 94 2 nan nan nan 
937 94 2 nan nan nan 
938 94 2 nan nan nan 
939 94 2 nan nan nan 
940 95 2 nan nan nan 
941 95 2 nan nan nan 
942 95 2 nan nan nan 
943 95 2 nan nan nan 
944 95 2 nan nan nan 
945 95 2 nan nan nan 
946 95 2 nan nan nan 
947 95 2 nan nan nan 
948 95 2 nan nan nan 
949 96 2 nan nan nan 
950 96 2 nan nan nan 
951 96 2 nan nan nan 
952 96 2 nan nan nan 
953 96 2 nan nan nan 
954 96 2 nan nan nan 
955 96 2 nan nan nan 
956 96 2 nan nan nan 
957 96 2 nan nan nan 
958 97 2 nan nan nan 
959 97 2 nan nan nan 
960 97 2 nan nan nan 
961 97 2 nan nan nan 
962 97 2 nan nan nan 
963 97 2 nan nan nan 
964 97 2 nan nan nan 
965 97 2 nan nan nan 
966 97 2 nan nan nan 
967 98 2 nan nan nan 
968 98 2 nan nan nan 
969 98 2 nan nan nan 
970 98 2 nan nan nan 
971 98 2 nan nan nan 
972 98 2 nan nan nan 
973 98 2 nan nan nan 
974 98 2 nan nan nan 
975 98 2 nan nan nan 
976 99 2 nan nan nan 
977 99 2 nan nan nan 
978 99 2 nan nan nan 
979 99 2 nan nan nan 
980 99 2 nan nan nan 
981 99 2 nan nan nan 
982 99 2 nan nan nan 
983 99 2 nan nan nan 
984 99 2 nan nan nan 
985 100 2 nan nan nan 
986 100 2 nan nan nan 
987 100 2 nan nan nan 
988 100 2 nan nan nan 
989 100 2 nan nan nan 
990 100 2 nan nan nan 
991 100 2 nan nan nan 
992 100 2 nan nan nan 
993 100 2 nan nan nan 
994 101 2 nan nan nan 
995 101 2 nan nan nan 
996 101 2 nan nan nan 
997 101 2 nan nan nan 
998 101 2 nan nan nan 
999 101 2 nan nan nan 
1000 101 2 nan nan nan 
1001 101 2 nan nan nan 
1002 101 2 nan nan nan 
1003 102 2 nan nan nan 
1004 102 2 nan nan nan 
1005 102 2 nan nan nan 
1006 102 2 nan nan nan 
1007 102 2 nan nan nan 
1008 102 2 nan nan nan 
1009 102 2 nan nan nan 
1010 102 2 nan nan nan 
1011 102 2 nan nan nan 
1012 103 2 nan nan nan 
1013 103 2 nan nan nan 
1014 103 2 nan nan nan 
1015 103 2 nan nan nan 
1016 103 2 nan nan nan 
1017 103 2 nan nan nan 
1018 103 2 nan nan nan 
1019 103 2 nan nan nan 
1020 103 2 nan nan nan 
1021 104 2 nan nan nan 
1022 104 2 nan nan nan 
1023 104 2 nan nan nan 
1024 104 2 nan nan nan 
1025 104 2 nan nan nan 
1026 104 2 nan nan nan 
1027 104 2 nan nan nan 
1028 104 2 nan nan nan 
1029 104 2 nan nan nan 
1030 105 2 nan nan nan 
1031 105 2 nan nan nan 
1032 105 2 nan nan nan 
1033 105 2 nan nan nan 
1034 105 2 nan nan nan 
1035 105 2 nan nan nan 
1036 105 2 nan nan nan 
1037 105 2 nan nan nan 
1038 105 2 nan nan nan 
1039 106 2 nan nan nan 
1040 106 2 nan nan nan 
1041 106 2 nan nan nan 
1042 106 2 nan nan nan 
1043 106 2 nan nan nan 
1044 106 2 nan nan nan 
1045 106 2 nan nan nan 
1046 106 2 nan nan nan 
1047 106 2 nan nan nan 
1048 107 2 nan nan nan 
1049 107 2 nan nan nan 
1050 107 2 nan nan nan 
1051 107 2 nan nan nan 
1052 107 2 nan nan nan 
1053 107 2 nan nan nan 
1054 107 2 nan nan nan 
1055 107 2 nan nan nan 
1056 107 2 nan nan nan 
1057 108 2 nan nan nan 
1058 108 2 nan nan nan 
1059 108 2 nan nan nan 
1060 108 2 nan nan nan 
1061 108 2 nan nan nan 
1062 108 2 nan nan nan 
1063 108 2 nan nan nan 
1064 108 2 nan nan nan 
1065 108 2 nan nan nan 
1066 109 2 nan nan nan 
1067 109 2 nan nan nan 
1068 109 2 nan nan nan 
1069 109 2 nan nan nan 
1070 109 2 nan nan nan 
1071 109 2 nan nan nan 
1072 109 2 nan nan nan 
1073 109 2 nan nan nan 
1074 109 2 nan nan nan 
1075 110 2 nan nan nan 
1076 110 2 nan nan nan 
1077 110 2 nan nan nan 
1078 110 2 nan nan nan 
1079 110 2 nan nan nan 
1080 110 2 nan nan nan 
1081 110 2 nan nan nan 
1082 110 2 nan nan nan 
1083 110 2 nan nan nan 
1084 111 2 nan nan nan 
1085 111 2 nan nan nan 
1086 111 2 nan nan nan 
1087 111 2 nan nan nan 
1088 111 2 nan nan nan 
1089 111 2 nan nan nan 
1090 111 2 nan nan nan 
1091 111 2 nan nan nan 
1092 111 2 nan nan nan 
1093 112 2 nan nan nan 
1094 112 2 nan nan nan 
1095 112 2 nan nan nan 
1096 112 2 nan nan nan 
1097 112 2 nan nan nan 
1098 112 2 nan nan nan 
1099 112 2 nan nan nan 
1100 112 2 nan nan nan 
1101 112 2 nan nan nan 
1102 113 2 nan nan nan 
1103 113 2 nan nan nan 
1104 113 2 nan nan nan 
1105 113 2 nan nan nan 
1106 113 2 nan nan nan 
1107 113 2 nan nan nan 
1108 113 2 nan nan nan 
1109 113 2 nan nan nan 
1110 113 2 nan nan nan 
1111 114 2 nan nan nan 
1112 114 2 nan nan nan 
1113 114 2 nan nan nan 
1114 114 2 nan nan nan 
1115 114 2 nan nan nan 
1116 114 2 nan nan nan 
1117 114 2 nan nan nan 
1118 114 2 nan nan nan 
1119 114 2 nan nan nan 
1120 115 2 nan nan nan 
1121 115 2 nan nan nan 
1122 115 2 nan nan nan 
1123 115 2 nan nan nan 
1124 115 2 nan nan nan 
1125 115 2 nan nan nan 
1126 115 2 nan nan nan 
1127 115 2 nan nan nan 
1128 115 2 nan nan nan 
1129 116 2 nan nan nan 
1130 116 2 nan nan nan 
1131 116 2 nan nan nan 
1132 116 2 nan nan nan 
1133 116 2 nan nan nan 
1134 116 2 nan nan nan 
1135 116 2 nan nan nan 
1136 116 2 nan nan nan 
1137 116 2 nan nan nan 
1138 117 2 nan nan nan 
1139 117 2 nan nan nan 
1140 117 2 nan nan nan 
1141 117 2 nan nan nan 
1142 117 2 nan nan nan 
1143 117 2 nan nan nan 
1144 117 2 nan nan nan 
1145 117 2 nan nan nan 
1146 117 2 nan nan nan 
1147 118 2 nan nan nan 
1148 118 2 nan nan nan 
1149 118 2 nan nan nan 
1150 118 2 nan nan nan 
1151 118 2 nan nan nan 
1152 118 2 nan nan nan 